# vtk DataFile Version 2.0
Really cool data
ASCII
DATASET UNSTRUCTURED_GRID
POINTS 204 double
5.0 5.0 -2.5
-5.0 5.0 -2.5
-5.0 -5.0 -2.5
5.0 -5.0 -2.5
5.0 5.0 2.5
-5.0 5.0 2.5
-5.0 -5.0 2.5
5.0 -5.0 2.5
-2.5 -2.5 -2.5
-2.5 2.5 -2.5
2.5 2.5 -2.5
2.5 -2.5 -2.5
-2.5 -2.5 2.5
-2.5 2.5 2.5
2.5 2.5 2.5
2.5 -2.5 2.5
3.0 5.0 -2.5
1.0 5.0 -2.5
-1.0 5.0 -2.5
-3.0 5.0 -2.5
-5.0 3.0 -2.5
-5.0 1.0 -2.5
-5.0 -1.0 -2.5
-5.0 -3.0 -2.5
-3.0 -5.0 -2.5
-1.0 -5.0 -2.5
1.0 -5.0 -2.5
3.0 -5.0 -2.5
5.0 -3.0 -2.5
5.0 -1.0 -2.5
5.0 1.0 -2.5
5.0 3.0 -2.5
3.0 5.0 2.5
1.0 5.0 2.5
-1.0 5.0 2.5
-3.0 5.0 2.5
-5.0 3.0 2.5
-5.0 1.0 2.5
-5.0 -1.0 2.5
-5.0 -3.0 2.5
-3.0 -5.0 2.5
-1.0 -5.0 2.5
1.0 -5.0 2.5
3.0 -5.0 2.5
5.0 -3.0 2.5
5.0 -1.0 2.5
5.0 1.0 2.5
5.0 3.0 2.5
5.0 5.0 -0.8333
5.0 5.0 0.8333
-5.0 5.0 -0.8333
-5.0 5.0 0.8333
-5.0 -5.0 -0.8333
-5.0 -5.0 0.8333
5.0 -5.0 -0.8333
5.0 -5.0 0.8333
-2.5 -0.8333 -2.5
-2.5 0.8333 -2.5
-0.8333 2.5 -2.5
0.8333 2.5 -2.5
2.5 0.8333 -2.5
2.5 -0.8333 -2.5
0.8333 -2.5 -2.5
-0.8333 -2.5 -2.5
-2.5 -0.8333 2.5
-2.5 0.8333 2.5
-0.8333 2.5 2.5
0.8333 2.5 2.5
2.5 0.8333 2.5
2.5 -0.8333 2.5
0.8333 -2.5 2.5
-0.8333 -2.5 2.5
-2.5 -2.5 -0.8333
-2.5 -2.5 0.8333
-2.5 2.5 -0.8333
-2.5 2.5 0.8333
2.5 2.5 -0.8333
2.5 2.5 0.8333
2.5 -2.5 -0.8333
2.5 -2.5 0.8333
-2.6111 5.0 0.0
2.6111 5.0 0.0
0.1429 5.0 0.3931
-1.2741 5.0 -0.9075
1.4816 5.0 -0.8144
-1.3355 5.0 0.9471
1.7853 5.0 0.9506
-3.5556 5.0 1.1333
-3.4931 5.0 -1.1235
3.5718 5.0 1.1314
3.5277 5.0 -1.108
-4.0013 5.0 0.001
4.0065 5.0 0.0024
-5.0 2.6111 0.0
-5.0 -2.6111 0.0
-5.0 -0.1429 0.3931
-5.0 1.2741 -0.9075
-5.0 -1.4816 -0.8144
-5.0 1.3355 0.9471
-5.0 -1.7853 0.9506
-5.0 3.5556 1.1333
-5.0 3.4931 -1.1235
-5.0 -3.5718 1.1314
-5.0 -3.5277 -1.108
-5.0 4.0013 0.001
-5.0 -4.0065 0.0024
-2.6111 -5.0 0.0
2.6111 -5.0 0.0
0.1429 -5.0 0.3931
-1.2741 -5.0 -0.9075
1.4816 -5.0 -0.8144
-1.3355 -5.0 0.9471
1.7853 -5.0 0.9506
-3.5556 -5.0 1.1333
-3.4931 -5.0 -1.1235
3.5718 -5.0 1.1314
3.5277 -5.0 -1.108
-4.0013 -5.0 0.001
4.0065 -5.0 0.0024
5.0 2.6111 0.0
5.0 -2.6111 0.0
5.0 -0.1429 0.3931
5.0 1.2741 -0.9075
5.0 -1.4816 -0.8144
5.0 1.3355 0.9471
5.0 -1.7853 0.9506
5.0 3.5556 1.1333
5.0 3.4931 -1.1235
5.0 -3.5718 1.1314
5.0 -3.5277 -1.108
5.0 4.0013 0.001
5.0 -4.0065 0.0024
-2.5 0.0 0.0
-2.5 1.0946 1.0946
-2.5 -1.245 1.245
-2.5 1.245 -1.245
-2.5 -1.0946 -1.0946
-2.5 0.0 -1.6369
-2.5 -1.6369 0.0
-2.5 0.0 1.6369
-2.5 1.6369 0.0
0.0 2.5 0.0
1.1454 2.5 1.1454
1.245 2.5 -1.245
-1.245 2.5 1.245
-1.0946 2.5 -1.0946
0.0 2.5 -1.6369
-1.6369 2.5 0.0
0.0 2.5 1.6369
1.6369 2.5 0.0
2.5 0.0 0.0
2.5 -1.0946 1.0946
2.5 -1.245 -1.245
2.5 1.245 1.245
2.5 1.0946 -1.0946
2.5 0.0 -1.6369
2.5 1.6369 0.0
2.5 0.0 1.6369
2.5 -1.6369 0.0
0.0 -2.5 0.0
-1.0946 -2.5 1.0946
1.245 -2.5 1.245
-1.245 -2.5 -1.245
1.0946 -2.5 -1.0946
0.0 -2.5 -1.6369
1.6369 -2.5 0.0
0.0 -2.5 1.6369
-1.6369 -2.5 0.0
3.7333 0.0 2.5
0.0 3.7333 2.5
-3.7333 0.0 2.5
0.0 -3.7333 2.5
1.8194 -3.7194 2.5
-3.7194 -1.8194 2.5
-1.8194 3.7194 2.5
3.7194 1.8194 2.5
1.8194 3.7194 2.5
3.7194 -1.8194 2.5
-1.8194 -3.7194 2.5
-3.7194 1.8194 2.5
-3.5833 3.5833 2.5
-3.5065 -3.5065 2.5
3.5833 3.5833 2.5
3.5833 -3.5833 2.5
3.7333 0.0 -2.5
0.0 3.7333 -2.5
-3.7333 0.0 -2.5
0.0 -3.7333 -2.5
1.8194 -3.7194 -2.5
-3.7194 -1.8194 -2.5
-1.8194 3.7194 -2.5
3.7194 1.8194 -2.5
3.7194 -1.8194 -2.5
1.8194 3.7194 -2.5
-1.8194 -3.7194 -2.5
-3.7194 1.8194 -2.5
-3.5833 3.5833 -2.5
-3.5065 -3.5065 -2.5
3.5833 3.5833 -2.5
3.5833 -3.5833 -2.5
-3.4759 3.4759 0.0
-3.4776 -3.4748 0.0
3.4748 3.4776 0.0
3.4766 -3.4766 0.0
CELLS 541 2705
4 72 94 138 201
4 76 81 149 202
4 78 107 165 203
4 78 120 158 203
4 72 94 103 201
4 76 81 90 202
4 78 107 116 203
4 78 120 129 203
4 74 80 147 200
4 75 80 147 200
4 74 93 140 200
4 75 93 140 200
4 76 119 156 202
4 77 119 156 202
4 72 106 167 201
4 73 106 167 201
4 75 80 87 200
4 75 93 100 200
4 73 106 113 201
4 77 119 126 202
4 74 93 101 200
4 74 80 88 200
4 72 106 114 201
4 76 119 127 202
4 84 141 143 146
4 123 150 152 155
4 82 141 144 148
4 97 132 136 137
4 110 159 163 164
4 108 159 161 165
4 95 132 134 138
4 77 86 89 202
4 73 99 102 201
4 79 125 128 203
4 79 112 115 203
4 99 134 170 173
4 112 161 171 172
4 73 99 102 173
4 79 112 115 172
4 77 86 89 176
4 79 125 128 177
4 95 99 134 138
4 108 112 161 165
4 95 134 139 170
4 108 161 166 171
4 95 132 134 139
4 108 159 161 166
4 79 115 172 183
4 79 128 177 183
4 77 89 176 182
4 77 89 182 202
4 79 115 183 203
4 79 128 183 203
4 82 141 142 149
4 121 123 150 155
4 82 84 141 146
4 108 110 159 164
4 95 97 132 137
4 82 84 146 185
4 121 123 155 184
4 95 97 137 186
4 108 110 164 187
4 79 112 161 165
4 73 99 134 138
4 95 96 132 137
4 108 109 159 164
4 121 122 150 155
4 82 83 141 146
4 86 142 169 176
4 95 96 137 186
4 108 109 164 187
4 82 83 146 185
4 121 122 155 184
4 84 143 146 185
4 123 152 155 184
4 96 132 135 137
4 109 159 162 164
4 73 102 173 181
4 121 150 151 158
4 82 86 142 149
4 73 102 181 201
4 125 151 168 177
4 95 133 139 170
4 78 116 188 199
4 78 129 192 199
4 76 90 193 198
4 95 99 134 170
4 108 112 161 171
4 83 141 145 146
4 122 150 154 155
4 76 90 198 202
4 78 129 199 203
4 78 116 199 203
4 84 141 143 149
4 123 150 152 158
4 77 86 142 149
4 82 142 148 169
4 95 132 133 139
4 120 125 128 203
4 107 112 115 203
4 121 125 151 158
4 94 99 102 201
4 81 86 89 202
4 82 141 142 148
4 72 103 189 197
4 79 125 151 158
4 124 150 153 156
4 72 103 197 201
4 77 126 175 182
4 75 87 174 180
4 75 100 179 180
4 75 100 180 200
4 75 87 180 200
4 77 126 182 202
4 76 119 122 156
4 74 80 83 147
4 72 106 109 167
4 74 93 96 140
4 121 151 157 168
4 96 132 135 140
4 109 159 162 167
4 82 86 142 169
4 121 150 151 157
4 72 94 97 138
4 78 107 110 165
4 78 120 123 158
4 76 81 84 149
4 73 99 134 173
4 79 112 161 172
4 76 127 191 198
4 74 88 190 196
4 74 101 195 196
4 97 132 136 138
4 110 159 163 165
4 77 119 124 156
4 75 80 85 147
4 75 93 98 140
4 73 106 111 167
4 74 101 196 200
4 74 88 196 200
4 76 127 198 202
4 73 113 178 181
4 121 125 151 168
4 73 113 181 201
4 111 159 160 167
4 82 83 141 147
4 95 96 132 140
4 77 86 142 176
4 78 107 110 116
4 78 120 123 129
4 72 94 97 103
4 76 81 84 90
4 72 114 194 197
4 85 144 148 169
4 124 153 157 168
4 83 141 145 147
4 122 150 154 156
4 79 125 151 177
4 72 114 197 201
4 96 135 137 186
4 109 162 164 187
4 74 80 83 88
4 72 106 109 114
4 74 93 96 101
4 76 119 122 127
4 75 93 98 100
4 75 80 85 87
4 77 119 124 126
4 73 106 111 113
4 95 97 132 138
4 108 110 159 165
4 82 84 141 149
4 121 123 150 158
4 83 145 146 185
4 122 154 155 184
4 107 110 112 165
4 94 97 99 138
4 120 123 125 158
4 81 84 86 149
4 102 105 117 201
4 89 92 130 202
4 72 97 103 189
4 78 110 116 188
4 76 84 90 193
4 78 123 129 192
4 118 128 131 203
4 72 109 162 167
4 74 96 135 140
4 103 105 117 201
4 90 92 130 202
4 74 83 88 190
4 76 122 127 191
4 74 96 101 195
4 72 109 114 194
4 118 129 131 203
4 75 85 87 174
4 77 124 126 175
4 75 98 100 179
4 73 111 113 178
4 75 85 144 147
4 77 124 153 156
4 82 85 144 148
4 88 91 104 200
4 74 96 135 195
4 72 109 162 194
4 78 123 152 158
4 76 84 143 149
4 82 85 148 169
4 121 124 157 168
4 76 122 154 156
4 74 83 145 147
4 87 91 104 200
4 108 110 112 165
4 95 97 99 138
4 82 84 86 149
4 121 123 125 158
4 75 85 144 174
4 77 124 153 175
4 84 143 185 193
4 123 152 184 192
4 73 111 160 167
4 75 98 133 140
4 76 84 143 193
4 78 123 152 192
4 44 128 177 183
4 32 89 176 182
4 43 115 172 183
4 115 128 183 203
4 32 86 89 176
4 44 125 128 177
4 39 99 102 173
4 43 112 115 172
4 74 83 145 190
4 76 122 154 191
4 78 110 163 165
4 72 97 136 138
4 48 90 92 130
4 52 103 105 117
4 75 98 133 179
4 73 111 160 178
4 53 102 105 117
4 49 89 92 130
4 72 97 136 189
4 78 110 163 188
4 54 118 129 131
4 39 102 173 181
4 55 118 128 131
4 50 88 91 104
4 116 129 199 203
4 14 77 176 182
4 14 77 175 182
4 96 135 186 195
4 109 162 187 194
4 85 144 169 174
4 124 153 168 175
4 95 98 133 170
4 33 86 169 176
4 45 125 168 177
4 38 99 170 173
4 42 112 171 172
4 15 79 177 183
4 15 79 172 183
4 11 78 192 199
4 11 78 188 199
4 10 76 193 198
4 13 75 179 180
4 13 75 174 180
4 10 76 191 198
4 9 74 195 196
4 9 74 190 196
4 89 126 182 202
4 95 96 97 186
4 108 109 110 187
4 82 83 84 185
4 121 122 123 184
4 102 113 181 201
4 64 134 170 173
4 70 161 171 172
4 59 143 185 193
4 61 152 184 192
4 66 144 169 174
4 68 153 168 175
4 57 135 186 195
4 63 162 187 194
4 82 83 85 147
4 95 96 98 140
4 90 127 198 202
4 115 118 128 203
4 51 87 91 104
4 80 83 85 147
4 119 122 124 156
4 106 109 111 167
4 93 96 98 140
4 83 145 185 190
4 122 154 184 191
4 67 142 169 176
4 103 114 197 201
4 69 151 168 177
4 65 133 170 179
4 71 160 171 178
4 58 145 185 190
4 60 154 184 191
4 98 133 170 179
4 111 160 171 178
4 76 77 156 202
4 72 73 167 201
4 78 79 165 203
4 78 79 158 203
4 74 75 147 200
4 74 75 140 200
4 72 73 138 201
4 76 77 149 202
4 28 129 192 199
4 16 90 193 198
4 27 116 188 199
4 116 118 129 203
4 88 101 196 200
4 87 100 180 200
4 64 134 139 170
4 70 161 166 171
4 59 143 146 185
4 61 152 155 184
4 66 144 148 169
4 68 153 157 168
4 57 135 137 186
4 63 162 164 187
4 12 73 173 181
4 12 73 178 181
4 8 72 189 197
4 8 72 194 197
4 23 103 189 197
4 36 100 179 180
4 47 126 175 182
4 35 87 174 180
4 102 113 117 201
4 89 126 130 202
4 103 114 117 201
4 90 127 130 202
4 33 82 86 169
4 45 121 125 168
4 38 95 99 170
4 42 108 112 171
4 67 142 148 169
4 69 151 157 168
4 58 145 146 185
4 60 154 155 184
4 65 133 139 170
4 71 160 166 171
4 40 113 178 181
4 120 128 131 203
4 107 115 118 203
4 94 102 105 201
4 81 89 92 202
4 88 101 104 200
4 20 101 195 196
4 31 127 191 198
4 19 88 190 196
4 55 115 118 128
4 37 38 98 170
4 41 42 111 171
4 33 34 85 169
4 45 46 124 168
4 87 100 104 200
4 24 114 194 197
4 120 129 131 203
4 107 116 118 203
4 94 103 105 201
4 81 90 92 202
4 54 116 118 129
4 7 115 128 183
4 3 54 116 129
4 21 22 96 186
4 25 26 109 187
4 17 18 83 185
4 29 30 122 184
4 7 55 115 128
4 14 77 153 175
4 3 116 129 199
4 21 96 186 195
4 25 109 187 194
4 18 83 185 190
4 30 122 184 191
4 14 77 142 176
4 48 90 127 130
4 52 103 114 117
4 37 98 170 179
4 41 111 171 178
4 34 85 169 174
4 46 124 168 175
4 12 73 134 173
4 15 79 161 172
4 13 75 144 174
4 10 76 143 193
4 11 78 152 192
4 9 74 135 195
4 8 72 162 194
4 0 48 90 127
4 49 89 126 130
4 53 102 113 117
4 15 79 151 177
4 13 75 133 179
4 12 73 160 178
4 8 72 136 189
4 11 78 163 188
4 9 74 145 190
4 10 76 154 191
4 16 84 90 193
4 28 123 129 192
4 23 97 103 189
4 27 110 116 188
4 50 88 101 104
4 2 52 103 114
4 0 90 127 198
4 4 89 126 182
4 36 98 100 179
4 40 111 113 178
4 35 85 87 174
4 47 124 126 175
4 1 50 88 101
4 119 126 130 202
4 106 113 117 201
4 80 87 91 200
4 93 100 104 200
4 2 103 114 197
4 4 49 89 126
4 22 96 97 186
4 26 109 110 187
4 17 83 84 185
4 29 122 123 184
4 6 102 113 181
4 106 114 117 201
4 119 127 130 202
4 80 88 91 200
4 93 101 104 200
4 17 84 185 193
4 29 123 184 192
4 22 97 186 189
4 26 110 187 188
4 1 88 101 196
4 20 96 101 195
4 19 83 88 190
4 24 109 114 194
4 31 122 127 191
4 6 53 102 113
4 51 87 100 104
4 38 95 98 170
4 42 108 111 171
4 33 82 85 169
4 45 121 124 168
4 5 87 100 180
4 7 44 128 183
4 7 43 115 183
4 4 32 89 182
4 5 51 87 100
4 6 39 102 181
4 13 65 133 179
4 12 71 160 178
4 9 58 145 190
4 10 60 154 191
4 15 69 151 177
4 8 56 136 189
4 11 62 163 188
4 14 67 142 176
4 50 51 91 104
4 52 53 105 117
4 48 49 92 130
4 54 55 118 131
4 2 23 103 197
4 3 27 116 199
4 3 28 129 199
4 0 16 90 198
4 14 68 153 175
4 9 57 135 195
4 8 63 162 194
4 10 59 143 193
4 11 61 152 192
4 13 66 144 174
4 12 64 134 173
4 15 70 161 172
4 18 19 83 190
4 30 31 122 191
4 20 21 96 195
4 24 25 109 194
4 6 40 113 181
4 2 24 114 197
4 4 47 126 182
4 5 35 87 180
4 5 36 100 180
4 0 31 127 198
4 1 20 101 196
4 1 19 88 196
4 34 35 85 174
4 46 47 124 175
4 36 37 98 179
4 40 41 111 178
4 56 57 137 186
4 62 63 164 187
4 58 59 146 185
4 60 61 155 184
4 64 65 139 170
4 70 71 166 171
4 66 67 148 169
4 68 69 157 168
4 38 39 99 173
4 42 43 112 172
4 32 33 86 176
4 44 45 125 177
4 22 23 97 189
4 26 27 110 188
4 16 17 84 193
4 28 29 123 192
4 94 99 138 201
4 73 99 138 201
4 77 86 149 202
4 81 86 149 202
4 107 112 165 203
4 79 112 165 203
4 79 125 158 203
4 120 125 158 203
4 56 137 186 189
4 56 136 137 189
4 97 137 186 189
4 97 136 137 189
4 110 164 187 188
4 110 163 164 188
4 62 164 187 188
4 62 163 164 188
4 82 141 144 147
4 82 85 144 147
4 122 124 150 156
4 121 122 124 150
4 109 111 159 167
4 108 109 111 159
4 95 132 133 140
4 95 98 133 140
4 121 124 150 157
4 124 150 153 157
4 111 159 160 166
4 108 111 159 166
4 111 160 166 171
4 108 111 166 171
CELL_TYPES 541
10 10 10 10 10 10 10 10 10 10 10 10 10 10 10 10 10 10 10 10 10 10 10 10 10 10 10 10 10 10 10 10 10 10 10 10 10 10 10 10 10 10 10 10 10 10 10 10 10 10 10 10 10 10 10 10 10 10 10 10 10 10 10 10 10 10 10 10 10 10 10 10 10 10 10 10 10 10 10 10 10 10 10 10 10 10 10 10 10 10 10 10 10 10 10 10 10 10 10 10 10 10 10 10 10 10 10 10 10 10 10 10 10 10 10 10 10 10 10 10 10 10 10 10 10 10 10 10 10 10 10 10 10 10 10 10 10 10 10 10 10 10 10 10 10 10 10 10 10 10 10 10 10 10 10 10 10 10 10 10 10 10 10 10 10 10 10 10 10 10 10 10 10 10 10 10 10 10 10 10 10 10 10 10 10 10 10 10 10 10 10 10 10 10 10 10 10 10 10 10 10 10 10 10 10 10 10 10 10 10 10 10 10 10 10 10 10 10 10 10 10 10 10 10 10 10 10 10 10 10 10 10 10 10 10 10 10 10 10 10 10 10 10 10 10 10 10 10 10 10 10 10 10 10 10 10 10 10 10 10 10 10 10 10 10 10 10 10 10 10 10 10 10 10 10 10 10 10 10 10 10 10 10 10 10 10 10 10 10 10 10 10 10 10 10 10 10 10 10 10 10 10 10 10 10 10 10 10 10 10 10 10 10 10 10 10 10 10 10 10 10 10 10 10 10 10 10 10 10 10 10 10 10 10 10 10 10 10 10 10 10 10 10 10 10 10 10 10 10 10 10 10 10 10 10 10 10 10 10 10 10 10 10 10 10 10 10 10 10 10 10 10 10 10 10 10 10 10 10 10 10 10 10 10 10 10 10 10 10 10 10 10 10 10 10 10 10 10 10 10 10 10 10 10 10 10 10 10 10 10 10 10 10 10 10 10 10 10 10 10 10 10 10 10 10 10 10 10 10 10 10 10 10 10 10 10 10 10 10 10 10 10 10 10 10 10 10 10 10 10 10 10 10 10 10 10 10 10 10 10 10 10 10 10 10 10 10 10 10 10 10 10 10 10 10 10 10 10 10 10 10 10 10 10 10 10 10 10 10 10 10 10 10 10 10 10 10 10 10 10 10 10 10 10 10 10 10 10 10 10 10 10 10 10 10 10 10 10 10 10 10 10 10 10 10 10 10 10 10 10 10 10 10 10 10 10 10 10 10 10 10
POINT_DATA 204
SCALARS BTE_Temperature_[K] double 1
LOOKUP_TABLE default
-0.44569741321823064
0.44430535509977714
0.4424743841572786
-0.44501349659231465
-0.4458232460467949
0.4452193563432876
0.4435125645879239
-0.44488787026397786
0.5718329603022232
0.5557073081700268
-0.5725556307562343
-0.5583148687859242
0.5562185538618086
0.5672518713222333
-0.5653468295566418
-0.5761518233530855
-0.2973513509221915
-0.07844201973411645
0.1156316788260583
0.2938410453105534
0.4724912553045456
0.48584964946308035
0.4871469613318407
0.4718587116139061
0.2932930914077292
0.11590515093114225
-0.07649570703839921
-0.2972697307338529
-0.4726972062039746
-0.48672070071060736
-0.48542119057240135
-0.4726818979355868
-0.3034416772670554
-0.07612083522867935
0.11946832405383634
0.29609716132481717
0.47227918156613824
0.4853932362463089
0.48578059648559113
0.471519044375305
0.29585455893265317
0.11969138531056617
-0.0765931484221909
-0.30327745166528336
-0.47146520288995414
-0.486310154497267
-0.485691947446997
-0.4723689496135862
-0.4707657798531475
-0.4704126623173251
0.46943279673815863
0.4700372263600402
0.4720039105941838
0.472590806734983
-0.47313194084860066
-0.4725542908376357
0.9285890733369964
0.9036243677245566
0.1711083211777586
-0.1714038308521993
-0.9400622315879126
-0.9188695843045136
-0.1772935987110157
0.1686761180169388
0.907264520010024
0.9282956279178473
0.16888352593328612
-0.17680230112644754
-0.9192355368860224
-0.9401080995077905
-0.17074366005215716
0.17456430078647686
0.35077979576838847
0.3399414746075735
0.3491774351301886
0.3500337244239411
-0.35128099093331216
-0.35958907208257307
-0.35067321132793267
-0.34974684528926725
0.28582630014407545
-0.2932003909365178
-0.010622493082902267
0.1230742625288419
-0.14183761955773755
0.14371448074178775
-0.20145048383532696
0.3725455167952779
0.37114139353423875
-0.37589408365275545
-0.3734822410471842
0.4203348759433473
-0.42013050944136493
0.4481594993665005
0.4559509879287982
0.4740131849543682
0.4705323641180004
0.46904175926815445
0.4684989356606261
0.46140154084126456
0.44543272782050297
0.445245646140113
0.44570037532835116
0.44514449147025054
0.45118522760988033
0.46934511958647895
0.2865363577762514
-0.2929572731549864
-0.03484688287734224
0.12529206704651435
-0.14178736288574725
0.13548374130256882
-0.2018162038930133
0.36081301125418735
0.35934509135715503
-0.3645422684210397
-0.3619499479127523
0.4369675002297623
-0.4366812474056852
-0.44834565587880776
-0.45569742621546905
-0.47507431032929676
-0.47037640538568937
-0.4694318406721224
-0.4699151135484012
-0.4611246710285691
-0.4456322925925837
-0.4459700419643865
-0.44573657467488914
-0.44593479316679246
-0.4518369209615546
-0.46941399381948984
0.47396600690987034
0.5529023833533411
0.5436849086986514
0.5595648587016029
0.5987590697746066
0.5259808370722121
0.45204929283000206
0.586617125788848
0.4519236391226296
-0.006022825679726469
-0.151867575591953
-0.16704836327401035
0.1426195957370706
0.1603932739863273
-0.0063889216833506405
0.1819248134116493
0.014494015835185411
-0.19405594698113032
-0.47394076548872555
-0.5530897662448405
-0.5626504573841892
-0.5627366264005965
-0.5709487230427784
-0.5457349807649369
-0.44756237769775636
-0.5632830830850065
-0.45189469417455774
0.012906448661187297
0.16505938156250916
-0.1509067470545522
0.16328651350419926
-0.19295017612768423
-0.023523508296927325
-0.19376426030984178
0.014510019303961551
0.20559982794973167
-0.5203871955082233
-0.004345015573753893
0.5183976395714978
-0.006097088302658675
-0.2536907934013378
0.530863051477889
0.2437732385332921
-0.5349013376871993
-0.2552432560745925
-0.5401821252274673
0.2451149986813108
0.5396922419669863
0.38643580944357175
0.3852128502168311
-0.38728381622663854
-0.38696399860423303
-0.5204763521946303
-0.0037366766992657126
0.5258015994375481
0.013309256125111262
-0.2223090421709111
0.5310587373363732
0.24291605193798796
-0.5419018685744021
-0.5346316634041778
-0.24596065431099534
0.2423475408600735
0.5325216677946009
0.3856388344008192
0.38496139034696836
-0.3869669469946661
-0.38648115417166556
0.38660016144621107
0.394296948888003
-0.37770851686367496
-0.3852134977354612