# vtk DataFile Version 2.0
Really cool data
ASCII
DATASET UNSTRUCTURED_GRID
POINTS 4095 double
-15.0 -5.0 0.0
-5.0 -5.0 0.0
-5.0 -15.0 0.0
-15.0 -15.0 0.0
-7.5 -12.5 0.0
-7.5 -7.5 0.0
-12.5 -7.5 0.0
-12.5 -12.5 0.0
-14.5 -5.0 0.0
-14.0 -5.0 0.0
-13.5 -5.0 0.0
-13.0 -5.0 0.0
-12.5 -5.0 0.0
-12.0 -5.0 0.0
-11.5 -5.0 0.0
-11.0 -5.0 0.0
-10.5 -5.0 0.0
-10.0 -5.0 0.0
-9.5 -5.0 0.0
-9.0 -5.0 0.0
-8.5 -5.0 0.0
-8.0 -5.0 0.0
-7.5 -5.0 0.0
-7.0 -5.0 0.0
-6.5 -5.0 0.0
-6.0 -5.0 0.0
-5.5 -5.0 0.0
-5.0 -5.5 0.0
-5.0 -6.0 0.0
-5.0 -6.5 0.0
-5.0 -7.0 0.0
-5.0 -7.5 0.0
-5.0 -8.0 0.0
-5.0 -8.5 0.0
-5.0 -9.0 0.0
-5.0 -9.5 0.0
-5.0 -10.0 0.0
-5.0 -10.5 0.0
-5.0 -11.0 0.0
-5.0 -11.5 0.0
-5.0 -12.0 0.0
-5.0 -12.5 0.0
-5.0 -13.0 0.0
-5.0 -13.5 0.0
-5.0 -14.0 0.0
-5.0 -14.5 0.0
-5.5 -15.0 0.0
-6.0 -15.0 0.0
-6.5 -15.0 0.0
-7.0 -15.0 0.0
-7.5 -15.0 0.0
-8.0 -15.0 0.0
-8.5 -15.0 0.0
-9.0 -15.0 0.0
-9.5 -15.0 0.0
-10.0 -15.0 0.0
-10.5 -15.0 0.0
-11.0 -15.0 0.0
-11.5 -15.0 0.0
-12.0 -15.0 0.0
-12.5 -15.0 0.0
-13.0 -15.0 0.0
-13.5 -15.0 0.0
-14.0 -15.0 0.0
-14.5 -15.0 0.0
-15.0 -14.5 0.0
-15.0 -14.0 0.0
-15.0 -13.5 0.0
-15.0 -13.0 0.0
-15.0 -12.5 0.0
-15.0 -12.0 0.0
-15.0 -11.5 0.0
-15.0 -11.0 0.0
-15.0 -10.5 0.0
-15.0 -10.0 0.0
-15.0 -9.5 0.0
-15.0 -9.0 0.0
-15.0 -8.5 0.0
-15.0 -8.0 0.0
-15.0 -7.5 0.0
-15.0 -7.0 0.0
-15.0 -6.5 0.0
-15.0 -6.0 0.0
-15.0 -5.5 0.0
-7.5 -12.0 0.0
-7.5 -11.5 0.0
-7.5 -11.0 0.0
-7.5 -10.5 0.0
-7.5 -10.0 0.0
-7.5 -9.5 0.0
-7.5 -9.0 0.0
-7.5 -8.5 0.0
-7.5 -8.0 0.0
-8.0 -7.5 0.0
-8.5 -7.5 0.0
-9.0 -7.5 0.0
-9.5 -7.5 0.0
-10.0 -7.5 0.0
-10.5 -7.5 0.0
-11.0 -7.5 0.0
-11.5 -7.5 0.0
-12.0 -7.5 0.0
-12.5 -8.0 0.0
-12.5 -8.5 0.0
-12.5 -9.0 0.0
-12.5 -9.5 0.0
-12.5 -10.0 0.0
-12.5 -10.5 0.0
-12.5 -11.0 0.0
-12.5 -11.5 0.0
-12.5 -12.0 0.0
-12.0 -12.5 0.0
-11.5 -12.5 0.0
-11.0 -12.5 0.0
-10.5 -12.5 0.0
-10.0 -12.5 0.0
-9.5 -12.5 0.0
-9.0 -12.5 0.0
-8.5 -12.5 0.0
-8.0 -12.5 0.0
-13.5465 -6.3862000000000005 0.0
-6.436 -13.629 0.0
-6.371 -6.436 0.0
-13.5223 -13.5503 0.0
-13.7498 -8.7853 0.0
-7.744400000000001 -13.744299999999999 0.0
-11.75 -13.75 0.0
-12.188600000000001 -6.302 0.0
-6.1835 -7.7619 0.0
-8.7908 -6.1914 0.0
-6.1914 -11.2092 0.0
-10.2791 -13.762 0.0
-10.8132 -6.2646999999999995 0.0
-6.2646999999999995 -9.1868 0.0
-13.7339 -12.2201 0.0
-13.7647 -10.1868 0.0
-8.9958 -13.793 0.0
-13.8223 -7.6236999999999995 0.0
-6.1777 -12.3763 0.0
-7.6236999999999995 -6.1777 0.0
-9.7555 -6.0523 0.0
-6.0523 -10.2445 0.0
-13.552299999999999 -11.2445 0.0
-12.5767 -14.0734 0.0
-14.1884 -5.8961 0.0
-5.8118 -14.1038 0.0
-5.8962 -5.8118 0.0
-14.1561 -14.1114 0.0
-13.3269 -9.5625 0.0
-10.967600000000001 -13.3596 0.0
-5.8273 -8.5612 0.0
-11.4388 -5.8273 0.0
-13.0122 -5.8228 0.0
-6.9913 -14.142 0.0
-5.858 -6.9914000000000005 0.0
-14.1753 -13.0457 0.0
-11.0738 -14.1913 0.0
-14.1613 -9.4904 0.0
-6.6623 -8.4881 0.0
-11.5119 -6.6623 0.0
-12.7921 -13.2436 0.0
-14.2273 -6.9192 0.0
-5.7727 -13.0808 0.0
-6.9192 -5.7727 0.0
-6.686 -10.5826 0.0
-9.4174 -6.686 0.0
-14.186499999999999 -11.583 0.0
-9.625 -14.225 0.0
-9.6482 -13.2869 0.0
-8.375 -14.225 0.0
-8.3773 -13.2713 0.0
-7.178599999999999 -13.2143 0.0
-12.756 -6.7957 0.0
-6.7857 -7.178599999999999 0.0
-13.2771 -8.1162 0.0
-6.7229 -11.8838 0.0
-8.1162 -6.7229 0.0
-10.1518 -6.7024 0.0
-6.7024 -9.8482 0.0
-14.2024 -10.8482 0.0
-14.2736 -8.206 0.0
-5.7063 -11.7721 0.0
-8.2279 -5.7063 0.0
-13.4237 -14.260100000000001 0.0
-13.3765 -12.8485 0.0
-9.0082 -5.8008 0.0
-5.8008 -10.9918 0.0
-10.3562 -5.7037 0.0
-5.7037 -9.6438 0.0
-13.2037 -10.6438 0.0
-13.233699999999999 -11.9783 0.0
-13.1805 -7.376799999999999 0.0
-6.8195 -12.6232 0.0
-7.376799999999999 -6.8195 0.0
-12.1379 -13.2033 0.0
-12.048 -14.321 0.0
-12.2424 -5.4441 0.0
-5.6 -7.75 0.0
-14.5266 -12.253499999999999 0.0
-7.7474 -14.5626 0.0
-10.2689 -12.9884 0.0
-10.2715 -14.5169 0.0
-12.9299 -8.7605 0.0
-7.071 -11.2474 0.0
-8.7526 -7.071 0.0
-14.3916 -10.2082 0.0
-10.7918 -6.8916 0.0
-6.8916 -9.2082 0.0
-12.1889 -6.8878 0.0
-6.9882 -7.8837 0.0
-14.4768 -8.875399999999999 0.0
-13.5405 -5.6197 0.0
-6.4597999999999995 -14.3788 0.0
-5.6212 -6.4597999999999995 0.0
-14.404 -13.5466 0.0
-9.0029 -14.2811 0.0
-8.9971 -13.06 0.0
-7.7003 -12.992799999999999 0.0
-10.9742 -5.5917 0.0
-5.5917 -9.0258 0.0
-13.0915 -10.026 0.0
-14.4115 -7.4417 0.0
-5.5885 -12.5583 0.0
-7.4417 -5.5885 0.0
-11.5294 -13.0894 0.0
-13.7013 -7.026400000000001 0.0
-6.2987 -12.9736 0.0
-7.026400000000001 -6.2987 0.0
-14.3762 -6.406000000000001 0.0
-5.6239 -13.594 0.0
-6.406000000000001 -5.6239 0.0
-11.5227 -14.468399999999999 0.0
-13.0361 -12.449300000000001 0.0
-12.2623 -13.6654 0.0
-9.7484 -5.3463 0.0
-5.3463 -10.2516 0.0
-12.8463 -11.2516 0.0
-10.2616 -6.1727 0.0
-6.1727 -9.7384 0.0
-13.672699999999999 -10.7384 0.0
-6.2146 -10.6753 0.0
-9.3247 -6.2146 0.0
-13.7098 -11.6909 0.0
-12.7821 -14.603100000000001 0.0
-5.4309 -11.3113 0.0
-8.6887 -5.4309 0.0
-13.7806 -8.168099999999999 0.0
-6.2235 -11.7825 0.0
-8.2175 -6.2235 0.0
-13.05 -13.6796 0.0
-13.0215 -6.3132 0.0
-7.2943 -13.6946 0.0
-6.2927 -7.2968 0.0
-14.5231 -11.2171 0.0
-9.783 -7.023 0.0
-7.023 -10.217 0.0
-13.768699999999999 -14.5241 0.0
-14.4865 -5.4621 0.0
-5.5135 -14.5379 0.0
-5.4621 -5.5135 0.0
-14.546199999999999 -14.4875 0.0
-10.7375 -14.5641 0.0
-13.7715 -9.7141 0.0
-10.7921 -13.7682 0.0
-6.2718 -8.7135 0.0
-11.2865 -6.2718 0.0
-5.4473 -8.2464 0.0
-11.7707 -5.438 0.0
-10.7195 -12.9429 0.0
-12.9356 -9.2326 0.0
-14.5809 -9.7955 0.0
-11.2053 -7.0811 0.0
-7.0811 -8.7947 0.0
-8.2642 -13.7271 0.0
-9.7413 -13.7292 0.0
-12.7253 -5.4369 0.0
-5.4568 -7.2657 0.0
-14.5789 -12.756499999999999 0.0
-7.2732 -14.5626 0.0
-13.7449 -9.287 0.0
-11.2412 -13.7542 0.0
-6.2348 -8.2804 0.0
-11.7277 -6.253299999999999 0.0
-12.9345 -7.7394 0.0
-7.0655 -12.2606 0.0
-7.7394 -7.0655 0.0
-11.7215 -7.0394000000000005 0.0
-7.0562000000000005 -8.2906 0.0
-13.9555 -6.2742 0.0
-6.0484 -13.735 0.0
-6.265000000000001 -6.0484 0.0
-14.5532 -9.2914 0.0
-6.4752 -10.2177 0.0
-9.7823 -6.4752 0.0
-13.974499999999999 -11.2204 0.0
-13.7081 -13.9653 0.0
-13.706 -13.1366 0.0
-6.5974 -13.952300000000001 0.0
-6.0477 -6.5975 0.0
-13.1556 -5.3759 0.0
-6.8449 -14.6167 0.0
-5.3872 -6.8434 0.0
-14.6317 -13.1698 0.0
-13.3782 -6.0195 0.0
-14.5692 -7.8648 0.0
-5.4081 -12.1262 0.0
-7.8738 -5.4081 0.0
-12.8935 -12.8664 0.0
-13.7691 -12.7159 0.0
-7.0796 -10.7546 0.0
-9.2454 -7.0796 0.0
-14.5748 -11.7556 0.0
-13.9734 -5.4436 0.0
-6.0266 -14.5564 0.0
-5.4436 -6.0266 0.0
-14.5564 -13.9734 0.0
-13.2904 -6.8738 0.0
-6.675 -13.091000000000001 0.0
-6.909 -6.675 0.0
-14.6446 -6.7801 0.0
-5.3554 -13.219899999999999 0.0
-6.7801 -5.3554 0.0
-12.5352 -5.9411 0.0
-9.3691 -12.9187 0.0
-9.3895 -14.6083 0.0
-8.2127 -14.581 0.0
-8.2053 -12.9281 0.0
-11.3367 -5.3714 0.0
-5.3733 -8.6667 0.0
-12.892 -8.2605 0.0
-7.1080000000000005 -11.7402 0.0
-8.2598 -7.1080000000000005 0.0
-12.8708 -9.6642 0.0
-9.7984 -12.9365 0.0
-9.8289 -14.5799 0.0
-14.5713 -5.9402 0.0
-5.4287 -14.0598 0.0
-5.9402 -5.4287 0.0
-13.423 -7.734 0.0
-6.5777 -12.2577 0.0
-7.7423 -6.5777 0.0
-5.8782 -7.4132 0.0
-7.5077 -14.1302 0.0
-10.5052 -13.3743 0.0
-13.2224 -13.228200000000001 0.0
-11.1538 -12.9187 0.0
-13.9453 -13.5593 0.0
-11.1668 -14.6448 0.0
-14.5806 -10.5978 0.0
-10.4022 -7.0806000000000004 0.0
-7.0806000000000004 -9.5978 0.0
-13.2485 -14.6335 0.0
-5.8586 -8.1087 0.0
-11.943 -5.8619 0.0
-12.8116 -7.2134 0.0
-7.2021 -12.7954 0.0
-7.2046 -7.2021 0.0
-12.5662 -6.4371 0.0
-13.3518 -9.0225 0.0
-12.374600000000001 -12.9304 0.0
-10.5264 -14.1463 0.0
-14.154399999999999 -12.0138 0.0
-14.5872 -8.4757 0.0
-6.6051 -10.9928 0.0
-9.0072 -6.6051 0.0
-8.6181 -14.6174 0.0
-8.6579 -12.8766 0.0
-11.0549 -6.6384 0.0
-6.6384 -8.9451 0.0
-14.138300000000001 -9.9456 0.0
-10.0402 -13.3462 0.0
-7.9853000000000005 -14.119299999999999 0.0
-10.0149 -14.0973 0.0
-9.3502 -13.8961 0.0
-8.649000000000001 -13.897400000000001 0.0
-13.3759 -8.5132 0.0
-6.631600000000001 -11.4808 0.0
-8.5192 -6.631600000000001 0.0
-7.5699000000000005 -13.4117 0.0
-9.2532 -13.4344 0.0
-6.8688 -13.568200000000001 0.0
-6.4318 -6.8688 0.0
-5.3091 -11.7419 0.0
-8.2581 -5.3091 0.0
-7.9769000000000005 -13.3459 0.0
-6.6666 -7.6259 0.0
-5.8706 -11.4134 0.0
-8.5866 -5.8706 0.0
-14.1698 -7.8174 0.0
-5.8302 -12.1826 0.0
-7.8174 -5.8302 0.0
-8.7421 -13.437100000000001 0.0
-10.5559 -6.6061 0.0
-6.6061 -9.4441 0.0
-14.1061 -10.4442 0.0
-14.037600000000001 -7.284 0.0
-5.9624 -12.716000000000001 0.0
-7.284 -5.9624 0.0
-12.357800000000001 -14.6263 0.0
-13.8528 -6.661300000000001 0.0
-6.141500000000001 -13.3374 0.0
-6.662599999999999 -6.141500000000001 0.0
-10.6241 -5.3782 0.0
-5.3782 -9.3759 0.0
-12.8782 -10.3759 0.0
-14.1613 -8.5996 0.0
-11.8588 -12.8698 0.0
-9.2407 -5.3854 0.0
-5.3854 -10.7593 0.0
-12.8431 -11.730599999999999 0.0
-6.2313 -14.0435 0.0
-5.9565 -6.2313 0.0
-13.770199999999999 -5.9556 0.0
-12.8604 -10.7951 0.0
-5.3604 -9.7951 0.0
-10.2049 -5.3604 0.0
-12.6243 -13.5983 0.0
-14.167300000000001 -12.5235 0.0
-13.0737 -14.190100000000001 0.0
-11.8677 -6.629 0.0
-6.6244 -8.0613 0.0
-11.614 -14.075199999999999 0.0
-13.4283 -12.465 0.0
-14.6567 -7.1282 0.0
-5.3433 -12.8718 0.0
-7.1282 -5.3433 0.0
-11.8675 -14.6533 0.0
-5.8726 -9.3096 0.0
-10.6904 -5.8726 0.0
-13.3726 -10.3096 0.0
-11.7947 -13.3599 0.0
-14.1211 -9.0706 0.0
-13.357099999999999 -13.918099999999999 0.0
-13.465399999999999 -9.9598 0.0
-11.0406 -5.9656 0.0
-5.9656 -8.9594 0.0
-14.168199999999999 -14.668 0.0
-12.0482 -13.9663 0.0
-9.4991 -5.7344 0.0
-5.7344 -10.5009 0.0
-13.23 -11.0205 0.0
-13.2344 -11.5009 0.0
-5.73 -10.0205 0.0
-9.9795 -5.73 0.0
-12.4402 -13.3294 0.0
-13.5548 -7.3581 0.0
-6.4375 -12.647 0.0
-7.353 -6.4375 0.0
-12.4488 -7.1693 0.0
-7.1441 -7.5575 0.0
-12.8226 -12.1316 0.0
-11.3545 -13.4022 0.0
-7.2458 -9.25 0.0
-10.75 -7.2458 0.0
-14.7458 -10.25 0.0
-15.0 5.0 0.0
-5.0 5.0 0.0
-5.0 -5.0 0.0
-15.0 -5.0 0.0
-7.5 -2.5 0.0
-7.5 2.5 0.0
-12.5 2.5 0.0
-12.5 -2.5 0.0
-14.5 5.0 0.0
-14.0 5.0 0.0
-13.5 5.0 0.0
-13.0 5.0 0.0
-12.5 5.0 0.0
-12.0 5.0 0.0
-11.5 5.0 0.0
-11.0 5.0 0.0
-10.5 5.0 0.0
-10.0 5.0 0.0
-9.5 5.0 0.0
[...]
POINT_DATA 4095
SCALARS BTE_Temperature_[K] double 1
LOOKUP_TABLE default
0.47557903054228584
-0.4803230673626404
-0.475890768650247
0.4798686807524243
-0.40826583355527746
-0.3973485520327974
0.4136980498198586
0.4294628428520203
0.4539241777634236
0.42550407368501036
0.3756266483028511
0.3216821574555864
0.27179494354022354
0.22243197068586137
0.17018775791572405
0.11033004412799761
0.05273638792011103
-0.000591177124250896
-0.05699572868067201
-0.11589283082431029
-0.17136332521920658
-0.22086684770412465
-0.27757529475331694
-0.3281212326804576
-0.38180586386062676
-0.4232145824131048
-0.4516393919539301
-0.49332633105360335
-0.4901205653932816
-0.48708744043585006
-0.49257633248326155
-0.49290540441633696
-0.5048970245363898
-0.5077651623909204
-0.5094143295457911
-0.5072259016355899
-0.5067861523283391
-0.5063844104572651
-0.505304242340908
-0.5059134447382024
-0.5030626437542098
-0.494311826496099
-0.49580374866798166
-0.4900734209960436
-0.4951626488704479
-0.4867785418675841
-0.45319269083415403
-0.4279289174645234
-0.3782938147766026
-0.323871456866597
-0.275494853202296
-0.22468602046149103
-0.17359150946096333
-0.11361779068329553
-0.05229651960941909
0.0021547755477449512
0.05520001202560506
0.10842464041171107
0.1678728292865277
0.22544074467702513
0.2750243766136063
0.3258050871062976
0.37499106164862656
0.4180151908798395
0.4535362361035233
0.4938919753759581
0.48936784830420627
0.4839506783855308
0.49284365834564264
0.4955804119902565
0.49658709800125417
0.5005971765960648
0.5044438368799281
0.5012174937422581
0.5008769598222788
0.5023415023580048
0.5029149680314116
0.4955190946998403
0.4977903439540204
0.4943525321959923
0.49509304425930883
0.4869706905597001
0.49272521525610213
0.48617180552100653
-0.6076380806391501
-0.612945622171499
-0.6072689400323035
-0.5989255330699522
-0.5926179566679123
-0.5948461911826156
-0.6031425271228678
-0.6090621169273616
-0.5941984561202157
-0.22015085117869884
-0.15898579367264673
-0.1047595002995995
-0.05176213381753634
0.00234726334915653
0.052381278880466196
0.1028853077085214
0.15962142204800747
0.22739088095409876
0.6022953838705034
0.6045315240313823
0.5998171990063601
0.5915862365534251
0.5858265788710627
0.5932217793493151
0.604231059380418
0.6151767392846653
0.617570905924132
0.22575377535873295
0.16030271407582994
0.09936827835330879
0.04886781337644295
0.0017673339097025776
-0.04721263182516972
-0.10505811238973652
-0.1657652061960686
-0.22307617395222878
0.39477320617720424
-0.39975673564097963
-0.41037964680417155
0.39699416912413876
0.5417168360085797
-0.2567077581787958
0.19159193229773064
0.2434778484446349
-0.5016776506318676
-0.13546554330090868
-0.5475027713733064
0.028708972670688393
0.08719545425530124
-0.5507879023566222
0.49615972824835675
0.5462558876637275
-0.1103711067950707
0.48408308967705793
-0.486875915951138
-0.26617766777462076
-0.025758428328523604
-0.544108464946793
0.5525013593023771
0.28320952991635834
0.4406253076148736
-0.44320319547915116
-0.4342390768594256
0.44082303306001036
0.5649536579387145
0.10271694734615976
-0.5276181563386323
0.15986923524515145
0.3336050027329062
-0.33578566013573524
-0.46097691279916553
0.45808514793436805
0.11985518314490676
0.5315646134101938
-0.5632972059443916
0.16097394650889083
0.32922910912798703
0.4668718577747593
-0.4687158831755026
-0.3333686571646268
-0.5712873039052095
-0.06226949620167316
0.5174082155284636
-0.04917719855787913
-0.03973777805474503
-0.17668441983599006
-0.17692688635844023
-0.337125545696574
0.3272979843744494
-0.42467528433760093
0.5467004752908042
-0.5524133881953145
-0.21296463049762832
0.014479392160739929
-0.5685346537841437
0.5282392748450492
0.5073429684775699
-0.5115997026985037
-0.19820607163861248
0.3691415552994941
0.42398699782810967
-0.10983927800580191
-0.5317383049283924
0.038887091249670803
-0.5298727620737294
0.569653082910363
0.5371839257001048
0.4496712710193854
-0.4510674513423324
-0.3140069241535802
0.2392092615806216
0.2230237846433553
0.2484961782069364
-0.49662330920762593
0.49382971513639845
-0.25149944926535284
0.026112978633825057
0.02913622269832783
0.5885119675408813
-0.5955628038578918
-0.13263369431869762
0.5208060162636801
0.08221598539907952
-0.5785947058495202
0.25157319902744196
-0.5613252288368136
0.5121123847674932
0.3748942016298213
-0.3783206771007728
-0.46528311019176516
0.4620478333840498
-0.11201334543131831
-0.10697033962986187
-0.2732089785296977
0.11108220636878113
-0.5241377078492242
0.5739552403053937
0.4852444096678073
-0.48644452089907303
-0.2850635985293393
0.16463360227052257
0.44855675319477617
-0.451453550504546
-0.3346302516027337
0.45933348731258733
-0.4620297107190649
-0.3844957402420138
0.17080750327076563
0.4722991124824885
0.2494044197545398
-0.028683546260750075
-0.5150681926224127
0.5948250226205338
0.027670755370613958
-0.5490199252326184
0.5503834386174307
-0.5516766219539828
-0.0740905933638237
0.5319539247133636
0.30369627621343476
-0.5148766863792915
-0.14867912309611644
0.519953352160974
-0.5253000751424068
-0.20431345332262954
0.343506521359796
0.34231002359473717
-0.310347629218359
-0.4558996144113721
0.5128546218107017
-0.02409413419366349
-0.5822192869787359
0.39793731791145437
0.45697917641975827
-0.45803908797874665
-0.47027077479393736
0.4712315444382681
0.08305503185124584
0.5456816206467473
0.08439353054841371
-0.5479804125915276
0.1378369701570324
-0.513940335113256
0.19640285890436668
0.07456019273930578
0.5849706988669064
0.5139395456540073
0.12676638183438096
-0.5901851211240591
-0.19371626082584043
-0.03050063995860284
0.2982390421757895
-0.4832237144037672
0.4856750492930786
-0.301311942516505
0.5473558870605094
0.13737449508284488
-0.536724468840403
0.1892809543163317
0.525017784940988
-0.5273833508615215
-0.26570093067238554
0.1871981498908689
-0.5849508610982711
0.4257316887483543
-0.4281168451842081
-0.4073114581034568
0.5133976960977776
-0.5610304377336627
-0.02440708028058089
0.5345894154549998
0.40232643761596926
0.4273194120482777
-0.37669996828646346
-0.4413173306681008
0.3412487222242933
-0.34334264918534635
-0.4804681955296418
0.47836348897388953
0.3718385249474413
0.49650187433628484
-0.49949556346170815
-0.2372865410755242
0.3758222451106601
0.45425889836617817
-0.59097786995431
-0.08029790407468111
0.5033518115855308
0.4124542174281752
-0.4160068883454752
-0.47211499913303245
0.47646880410126347
0.40604233919450894
-0.4127112803113214
-0.3682993874842232
0.4832901804737023
-0.4852546733142799
-0.34643237331238674
0.282379887471441
-0.06754096181970881
-0.07054644482380037
-0.20221386737894642
-0.19627610173103657
0.14889204904238876
-0.5143221575876933
0.5886519041502489
-0.5950379002266768
-0.18823140428025606
0.5816336311462325
-0.021036743731481927
-0.022816034029744036
0.4761905678231792
-0.47862138882747823
-0.42531141353377483
0.48907679203676824
-0.49182725440420433
-0.26347755953226065
-0.4730966042472856
-0.2806921840937406
0.05332158376212684
0.3836368342001552
0.12355532138357785
0.43508609013932165
0.12947169896839777
0.5145912096150418
0.03696833803291178
-0.583873871670355
0.35029616008873615
-0.5187963098195011
0.22032985966301685
0.39726340442759595
-0.3940492105018589
-0.3702100525782275
0.2911002171477642
0.5651645860973563
0.27791359580796265
0.05804338625802392
0.5028935134144
0.5039221617802061
-0.5712379125526431
-0.1076128547737718
-0.15541449092292398
-0.1454133114337498
0.11007096238828153
-0.5641710729375294
0.5316196834583133
0.0024687266774644084
-0.22898602179820338
0.0019873515421958894
-0.07539363132297675
-0.1468628484732336
0.5605263206232335
-0.5659454879880297
-0.16266903353131412
-0.2842008944180069
-0.08113699684999161
-0.3611738872087735
-0.4273547651238749
-0.5084909944298119
-0.19601935741737916
-0.22755241774358947
-0.49353672773365026
-0.528780647063017
-0.15890614003851983
0.4924955837450116
-0.49680088399925565
-0.2473097489860853
-0.13708288254779546
0.05884416061728181
-0.5651812584168218
0.5327857851280422
0.4701214967893454
-0.47210832369534156
-0.2987606525117943
0.2536295225684658
0.43307869364517115
-0.4359792593710796
-0.3707427987436922
0.06942031371330205
-0.5177382962947481
0.5803811711805121
0.5212210770806659
0.2042795501858556
-0.08592475347770501
-0.5152841580716223
0.59517877190909
-0.4078883554194763
-0.43914383049974365
0.4050816658819814
0.5874812079525743
-0.5156480221582236
0.023150008297061726
0.3015128065304217
0.4795589000868768
0.3366924150311388
0.20661134079133384
-0.5450311617712879
0.17898969346070825
0.47238622751819576
0.4883622538085695
-0.48880643670755825
-0.3136580778875432
0.20829527528426595
-0.5367906144814883
0.0739802503663542
0.5627787980864759
0.19953962598128053
0.5280969789662587
0.3698945833387338
0.5584828770045587
0.11366670456290426
-0.538941687291927
0.4355662263056431
0.22787547266899835
-0.054708025501355
-0.5299535389378127
0.5704741396952818
0.5665303222409198
-0.5295654347790366
-0.002321150568943713
0.2830576585052337
0.4543644454318689
-0.4566213547525466
-0.30856552187936304
0.29455532723628153
-0.5008871960173803
0.5716510312555259
0.15023080156505603
-0.5935555388398025
0.07877354100558791
0.507967113887252
0.47557903054228584
-0.4803230673626404
-0.475890768650247
0.4798686807524243
-0.40826583355527746
-0.3973485520327974
0.4136980498198586
0.4294628428520203
0.4539241777634236
0.42550407368501036
0.3756266483028511
0.3216821574555864
0.27179494354022354
0.22243197068586137
0.17018775791572405
0.11033004412799761
0.05273638792011103
-0.000591177124250896
-0.05699572868067201
-0.11589283082431029
-0.17136332521920658
-0.22086684770412465
-0.27757529475331694
-0.3281212326804576
-0.38180586386062676
-0.4232145824131048
-0.4516393919539301
-0.49332633105360335
-0.4901205653932816
-0.48708744043585006
-0.49257633248326155
-0.49290540441633696
-0.5048970245363898
-0.5077651623909204
-0.5094143295457911
-0.5072259016355899
-0.5067861523283391
-0.5063844104572651
-0.505304242340908
-0.5059134447382024
-0.5030626437542098
-0.494311826496099
-0.49580374866798166
-0.4900734209960436
-0.4951626488704479
-0.4867785418675841
-0.45319269083415403
-0.4279289174645234
-0.3782938147766026
-0.323871456866597
-0.275494853202296
-0.22468602046149103
-0.17359150946096333
-0.11361779068329553
-0.05229651960941909
0.0021547755477449512
0.05520001202560506
0.10842464041171107
0.1678728292865277
0.22544074467702513
0.2750243766136063
0.3258050871062976
0.37499106164862656
0.4180151908798395
0.4535362361035233
0.4938919753759581
0.48936784830420627
0.4839506783855308
0.49284365834564264
0.4955804119902565
0.49658709800125417
0.5005971765960648
0.5044438368799281
0.5012174937422581
0.5008769598222788
0.5023415023580048
0.5029149680314116
0.4955190946998403
0.4977903439540204
0.4943525321959923
0.49509304425930883
0.4869706905597001
0.49272521525610213
0.48617180552100653
-0.6076380806391501
-0.612945622171499
-0.6072689400323035
-0.5989255330699522
-0.5926179566679123
-0.5948461911826156
-0.6031425271228678
-0.6090621169273616
-0.5941984561202157
-0.22015085117869884
-0.15898579367264673
-0.1047595002995995
-0.05176213381753634
0.00234726334915653
0.052381278880466196
0.1028853077085214
0.15962142204800747
0.22739088095409876
0.6022953838705034
0.6045315240313823
0.5998171990063601
0.5915862365534251
0.5858265788710627
0.5932217793493151
0.604231059380418
0.6151767392846653
0.617570905924132
0.22575377535873295
0.16030271407582994
0.09936827835330879
0.04886781337644295
0.0017673339097025776
-0.04721263182516972
-0.10505811238973652
-0.1657652061960686
-0.22307617395222878
0.39477320617720424
-0.39975673564097963
-0.41037964680417155
0.39699416912413876
0.5417168360085797
-0.2567077581787958
0.19159193229773064
0.2434778484446349
-0.5016776506318676
-0.13546554330090868
-0.5475027713733064
0.028708972670688393
0.08719545425530124
-0.5507879023566222
0.49615972824835675
0.5462558876637275
-0.1103711067950707
0.48408308967705793
-0.486875915951138
-0.26617766777462076
-0.025758428328523604
-0.544108464946793
0.5525013593023771
0.28320952991635834
0.4406253076148736
-0.44320319547915116
-0.4342390768594256
0.44082303306001036
0.5649536579387145
0.10271694734615976
-0.5276181563386323
0.15986923524515145
0.3336050027329062
-0.33578566013573524
-0.46097691279916553
0.45808514793436805
0.11985518314490676
0.5315646134101938
-0.5632972059443916
0.16097394650889083
0.32922910912798703
0.4668718577747593
-0.4687158831755026
-0.3333686571646268
-0.5712873039052095
-0.06226949620167316
0.5174082155284636
-0.04917719855787913
-0.03973777805474503
-0.17668441983599006
-0.17692688635844023
-0.337125545696574
0.3272979843744494
-0.42467528433760093
0.5467004752908042
-0.5524133881953145
-0.21296463049762832
0.014479392160739929
-0.5685346537841437
0.5282392748450492
0.5073429684775699
-0.5115997026985037
-0.19820607163861248
0.3691415552994941
0.42398699782810967
-0.10983927800580191
-0.5317383049283924
0.038887091249670803
-0.5298727620737294
0.569653082910363
0.5371839257001048
0.4496712710193854
-0.4510674513423324
-0.3140069241535802
0.2392092615806216
0.2230237846433553
0.2484961782069364
-0.49662330920762593
0.49382971513639845
-0.25149944926535284
0.026112978633825057
0.02913622269832783
0.5885119675408813
-0.5955628038578918
-0.13263369431869762
0.5208060162636801
0.08221598539907952
-0.5785947058495202
0.25157319902744196
-0.5613252288368136
0.5121123847674932
0.3748942016298213
-0.3783206771007728
-0.46528311019176516
0.4620478333840498
-0.11201334543131831
-0.10697033962986187
-0.2732089785296977
0.11108220636878113
-0.5241377078492242
0.5739552403053937
0.4852444096678073
-0.48644452089907303
-0.2850635985293393
0.16463360227052257
0.44855675319477617
-0.451453550504546
-0.3346302516027337
0.45933348731258733
-0.4620297107190649
-0.3844957402420138
0.17080750327076563
0.4722991124824885
0.2494044197545398
-0.028683546260750075
-0.5150681926224127
0.5948250226205338
0.027670755370613958
-0.5490199252326184
0.5503834386174307
-0.5516766219539828
-0.0740905933638237
0.5319539247133636
0.30369627621343476
-0.5148766863792915
-0.14867912309611644
0.519953352160974
-0.5253000751424068
-0.20431345332262954
0.343506521359796
0.34231002359473717
-0.310347629218359
-0.4558996144113721
0.5128546218107017
-0.02409413419366349
-0.5822192869787359
0.39793731791145437
0.45697917641975827
-0.45803908797874665
-0.47027077479393736
0.4712315444382681
0.08305503185124584
0.5456816206467473
0.08439353054841371
-0.5479804125915276
0.1378369701570324
-0.513940335113256
0.19640285890436668
0.07456019273930578
0.5849706988669064
0.5139395456540073
0.12676638183438096
-0.5901851211240591
-0.19371626082584043
-0.03050063995860284
0.2982390421757895
-0.4832237144037672
0.4856750492930786
-0.301311942516505
0.5473558870605094
0.13737449508284488
-0.536724468840403
0.1892809543163317
0.525017784940988
-0.5273833508615215
-0.26570093067238554
0.1871981498908689
-0.5849508610982711
0.4257316887483543
-0.4281168451842081
-0.4073114581034568
0.5133976960977776
-0.5610304377336627
-0.02440708028058089
0.5345894154549998
0.40232643761596926
0.4273194120482777
-0.37669996828646346
-0.4413173306681008
0.3412487222242933
-0.34334264918534635
-0.4804681955296418
0.47836348897388953
0.3718385249474413
0.49650187433628484
-0.49949556346170815
-0.2372865410755242
0.3758222451106601
0.45425889836617817
-0.59097786995431
-0.08029790407468111
0.5033518115855308
0.4124542174281752
-0.4160068883454752
-0.47211499913303245
0.47646880410126347
0.40604233919450894
-0.4127112803113214
-0.3682993874842232
0.4832901804737023
-0.4852546733142799
-0.34643237331238674
0.282379887471441
-0.06754096181970881
-0.07054644482380037
-0.20221386737894642
-0.19627610173103657
0.14889204904238876
-0.5143221575876933
0.5886519041502489
-0.5950379002266768
-0.18823140428025606
0.5816336311462325
-0.021036743731481927
-0.022816034029744036
0.4761905678231792
-0.47862138882747823
-0.42531141353377483
0.48907679203676824
-0.49182725440420433
-0.26347755953226065
-0.4730966042472856
-0.2806921840937406
0.05332158376212684
0.3836368342001552
0.12355532138357785
0.43508609013932165
0.12947169896839777
0.5145912096150418
0.03696833803291178
-0.583873871670355
0.35029616008873615
-0.5187963098195011
0.22032985966301685
0.39726340442759595
-0.3940492105018589
-0.3702100525782275
0.2911002171477642
0.5651645860973563
0.27791359580796265
0.05804338625802392
0.5028935134144
0.5039221617802061
-0.5712379125526431
-0.1076128547737718
-0.15541449092292398
-0.1454133114337498
0.11007096238828153
-0.5641710729375294
0.5316196834583133
0.0024687266774644084
-0.22898602179820338
0.0019873515421958894
-0.07539363132297675
-0.1468628484732336
0.5605263206232335
-0.5659454879880297
-0.16266903353131412
-0.2842008944180069
-0.08113699684999161
-0.3611738872087735
-0.4273547651238749
-0.5084909944298119
-0.19601935741737916
-0.22755241774358947
-0.49353672773365026
-0.528780647063017
-0.15890614003851983
0.4924955837450116
-0.49680088399925565
-0.2473097489860853
-0.13708288254779546
0.05884416061728181
-0.5651812584168218
0.5327857851280422
0.4701214967893454
-0.47210832369534156
-0.2987606525117943
0.2536295225684658
0.43307869364517115
-0.4359792593710796
-0.3707427987436922
0.06942031371330205
-0.5177382962947481
0.5803811711805121
0.5212210770806659
0.2042795501858556
-0.08592475347770501
-0.5152841580716223
0.59517877190909
-0.4078883554194763
-0.43914383049974365
0.4050816658819814
0.5874812079525743
-0.5156480221582236
0.023150008297061726
0.3015128065304217
0.4795589000868768
0.3366924150311388
0.20661134079133384
-0.5450311617712879
0.17898969346070825
0.47238622751819576
0.4883622538085695
-0.48880643670755825
-0.3136580778875432
0.20829527528426595
-0.5367906144814883
0.0739802503663542
0.5627787980864759
0.19953962598128053
0.5280969789662587
0.3698945833387338
0.5584828770045587
0.11366670456290426
-0.538941687291927
0.4355662263056431
0.22787547266899835
-0.054708025501355
-0.5299535389378127
0.5704741396952818
0.5665303222409198
-0.5295654347790366
-0.002321150568943713
0.2830576585052337
0.4543644454318689
-0.4566213547525466
-0.30856552187936304
0.29455532723628153
-0.5008871960173803
0.5716510312555259
0.15023080156505603
-0.5935555388398025
0.07877354100558791
0.507967113887252
0.47557903054228584
-0.4803230673626404
-0.475890768650247
0.4798686807524243
-0.40826583355527746
-0.3973485520327974
0.4136980498198586
0.4294628428520203
0.4539241777634236
0.42550407368501036
0.3756266483028511
0.3216821574555864
0.27179494354022354
0.22243197068586137
0.17018775791572405
0.11033004412799761
0.05273638792011103
-0.000591177124250896
-0.05699572868067201
-0.11589283082431029
-0.17136332521920658
-0.22086684770412465
-0.27757529475331694
-0.3281212326804576
-0.38180586386062676
-0.4232145824131048
-0.4516393919539301
-0.49332633105360335
-0.4901205653932816
-0.48708744043585006
-0.49257633248326155
-0.49290540441633696
-0.5048970245363898
-0.5077651623909204
-0.5094143295457911
-0.5072259016355899
-0.5067861523283391
-0.5063844104572651
-0.505304242340908
-0.5059134447382024
-0.5030626437542098
-0.494311826496099
-0.49580374866798166
-0.4900734209960436
-0.4951626488704479
-0.4867785418675841
-0.45319269083415403
-0.4279289174645234
-0.3782938147766026
-0.323871456866597
-0.275494853202296
-0.22468602046149103
-0.17359150946096333
-0.11361779068329553
-0.05229651960941909
0.0021547755477449512
0.05520001202560506
0.10842464041171107
0.1678728292865277
0.22544074467702513
0.2750243766136063
0.3258050871062976
0.37499106164862656
0.4180151908798395
0.4535362361035233
0.4938919753759581
0.48936784830420627
0.4839506783855308
0.49284365834564264
0.4955804119902565
0.49658709800125417
0.5005971765960648
0.5044438368799281
0.5012174937422581
0.5008769598222788
0.5023415023580048
0.5029149680314116
0.4955190946998403
0.4977903439540204
0.4943525321959923
0.49509304425930883
0.4869706905597001
0.49272521525610213
0.48617180552100653
-0.6076380806391501
-0.612945622171499
-0.6072689400323035
-0.5989255330699522
-0.5926179566679123
-0.5948461911826156
-0.6031425271228678