# vtk DataFile Version 2.0
Really cool data
ASCII
DATASET UNSTRUCTURED_GRID
POINTS 1169 float
10.0 5.8425 0.0
9.0199 5.8425 0.0
9.0199 9.7155 0.0
10.0 9.7155 0.0
10.0 10.0 0.0
-0.1647 10.0 0.0
-0.1647 8.7486 0.0
-4.0377 8.7486 0.0
-4.0377 10.0 0.0
-10.0 10.0 0.0
-10.0 9.7155 0.0
-7.1071 9.7155 0.0
-7.1071 5.8425 0.0
-10.0 5.8425 0.0
-10.0 -10.0 0.0
-4.0377 -10.0 0.0
-4.0377 -7.3784 0.0
-0.1647 -7.3784 0.0
-0.1647 -10.0 0.0
10.0 -10.0 0.0
-6.5012 0.4839 0.0
-6.5012 4.3569 0.0
-2.6282 4.3569 0.0
-2.6282 0.4839 0.0
4.0955 -7.8174 0.0
4.0955 -3.9444 0.0
7.9685 -3.9444 0.0
7.9685 -7.8174 0.0
9.0199 6.8107 0.0
9.0199 7.779 0.0
9.0199 8.7472 0.0
9.0759 10.0 0.0
8.1519 10.0 0.0
7.2278 10.0 0.0
6.3037 10.0 0.0
5.3797 10.0 0.0
4.4556 10.0 0.0
3.5316 10.0 0.0
2.6075 10.0 0.0
1.6834 10.0 0.0
0.7594 10.0 0.0
-0.1647 9.3743 0.0
-1.1329 8.7486 0.0
-2.1012 8.7486 0.0
-3.0694 8.7486 0.0
-4.0377 9.3743 0.0
-5.0314 10.0 0.0
-6.0251 10.0 0.0
-7.0188 10.0 0.0
-8.0126 10.0 0.0
-9.0063 10.0 0.0
-9.0357 9.7155 0.0
-8.0714 9.7155 0.0
-7.1071 8.7473 0.0
-7.1071 7.779 0.0
-7.1071 6.8108 0.0
-8.0714 5.8425 0.0
-9.0357 5.8425 0.0
-10.0 4.8523 0.0
-10.0 3.8622 0.0
-10.0 2.872 0.0
-10.0 1.8819 0.0
-10.0 0.8917 0.0
-10.0 -0.0984 0.0
-10.0 -1.0886 0.0
-10.0 -2.0788 0.0
-10.0 -3.0689 0.0
-10.0 -4.0591 0.0
-10.0 -5.0492 0.0
-10.0 -6.0394 0.0
-10.0 -7.0295 0.0
-10.0 -8.0197 0.0
-10.0 -9.0098 0.0
-9.0063 -10.0 0.0
-8.0126 -10.0 0.0
-7.0188 -10.0 0.0
-6.0251 -10.0 0.0
-5.0314 -10.0 0.0
-4.0377 -9.1261 0.0
-4.0377 -8.2523 0.0
-3.0695 -7.3784 0.0
-2.1012 -7.3784 0.0
-1.133 -7.3784 0.0
-0.1647 -8.2523 0.0
-0.1647 -9.1261 0.0
0.7594 -10.0 0.0
1.6834 -10.0 0.0
2.6075 -10.0 0.0
3.5316 -10.0 0.0
4.4556 -10.0 0.0
5.3797 -10.0 0.0
6.3037 -10.0 0.0
7.2278 -10.0 0.0
8.1519 -10.0 0.0
9.0759 -10.0 0.0
10.0 -9.0098 0.0
10.0 -8.0197 0.0
10.0 -7.0295 0.0
10.0 -6.0394 0.0
10.0 -5.0492 0.0
10.0 -4.0591 0.0
10.0 -3.0689 0.0
10.0 -2.0788 0.0
10.0 -1.0886 0.0
10.0 -0.0984 0.0
10.0 0.8917 0.0
10.0 1.8819 0.0
10.0 2.872 0.0
10.0 3.8622 0.0
10.0 4.8523 0.0
-6.5012 1.4521 0.0
-6.5012 2.4204 0.0
-6.5012 3.3886 0.0
-5.533 4.3569 0.0
-4.5647 4.3569 0.0
-3.5965 4.3569 0.0
-2.6282 3.3887 0.0
-2.6282 2.4204 0.0
-2.6282 1.4522 0.0
-3.5964 0.4839 0.0
-4.5647 0.4839 0.0
-5.5329 0.4839 0.0
4.0955 -6.8492 0.0
4.0955 -5.8809 0.0
4.0955 -4.9127 0.0
5.0637 -3.9444 0.0
6.032 -3.9444 0.0
7.0002 -3.9444 0.0
7.9685 -4.9126 0.0
7.9685 -5.8809 0.0
7.9685 -6.8491 0.0
7.0003 -7.8174 0.0
6.032 -7.8174 0.0
5.0638 -7.8174 0.0
3.5121 3.8922 0.0
-0.2798 -3.07 0.0
-5.8183 -3.7237 0.0
5.7622 0.4181 0.0
1.2389 0.5514 0.0
0.4689 5.5064 0.0
5.4152 6.367 0.0
6.6891 3.4859 0.0
-6.9558 -6.4523 0.0
-2.9231 -4.4298 0.0
1.9798 7.4618 0.0
3.3942 -1.2686 0.0
1.4184 -5.276 0.0
-0.026 2.8693 0.0
-4.1178 -2.0281 0.0
-4.8385 6.6172 0.0
7.4814 -1.4734 0.0
-7.478 -1.8803 0.0
3.4266 1.5987 0.0
-1.6495 6.4669 0.0
-0.4774 -0.6995 0.0
2.0416 -7.727 0.0
-0.8404 -5.1714 0.0
7.7173 1.4093 0.0
2.059 -3.1193 0.0
-7.5988 -4.5622 0.0
-4.6902 -5.3991 0.0
3.5131 5.9072 0.0
4.1156 8.2012 0.0
5.4148 -1.8677 0.0
7.1339 8.295 0.0
0.4289 7.262 0.0
-1.9423 -2.1964 0.0
1.6692 2.7652 0.0
1.2313 -1.1107 0.0
-5.8832 -8.0802 0.0
5.2352 4.5251 0.0
7.0219 5.2906 0.0
-0.8452 1.1175 0.0
-5.5118 8.0351 0.0
-8.314 -8.0441 0.0
4.9034 2.8055 0.0
-5.7591 -1.3127 0.0
-0.8868 4.4122 0.0
1.6573 4.2486 0.0
-8.3196 -0.0808 0.0
-3.4856 5.9587 0.0
-8.2039 1.6288 0.0
-8.2127 3.8405 0.0
-3.6354 7.3644 0.0
-9.4529 9.8933 0.0
8.41 4.1265 0.0
1.7533 5.9809 0.0
-8.511 9.9334 0.0
1.2023 8.7735 0.0
9.4658 9.8222 0.0
2.5689 -6.347 0.0
-4.3155 -3.6235 0.0
-6.2135 -5.2494 0.0
-2.2602 -5.7944 0.0
5.4418 8.5319 0.0
8.4453 -0.1166 0.0
-7.5861 9.7966 0.0
-5.3002 -6.8548 0.0
-8.5558 -5.9486 0.0
-1.4853 -3.7452 0.0
-8.5041 -3.0222 0.0
6.2539 1.8204 0.0
1.2142 -6.7874 0.0
2.7272 0.0933 0.0
-2.7564 -1.0055 0.0
4.2987 0.0523 0.0
2.6919 -4.4536 0.0
8.558 -2.5475 0.0
8.5341 2.6732 0.0
2.788 8.6538 0.0
4.1094 -2.4958 0.0
0.338 -4.3631 0.0
-0.7333 7.6126 0.0
-3.5516 -6.1131 0.0
7.5389 6.718 0.0
3.0149 -8.6959 0.0
-5.7664 5.6607 0.0
6.6544 -2.5604 0.0
-1.3211 2.3635 0.0
0.9997 -8.6427 0.0
-2.3255 7.4788 0.0
0.422 4.1244 0.0
0.4837 1.6854 0.0
-0.4345 6.3952 0.0
-7.1318 -3.1699 0.0
7.072 -0.0812 0.0
-2.9722 -3.0077 0.0
5.0049 1.3602 0.0
-5.1332 -2.569 0.0
-4.6948 7.826 0.0
-4.3724 -0.9672 0.0
-5.9486 6.9972 0.0
0.0803 -5.9147 0.0
2.7724 5.0184 0.0
-8.6412 -1.2054 0.0
2.2608 1.3505 0.0
-4.2991 5.5332 0.0
-0.155 -1.6087 0.0
-6.7351 -0.7047 0.0
2.5241 -1.7553 0.0
8.4345 -8.7664 0.0
3.2424 2.6963 0.0
-6.9844 -8.806 0.0
-1.8531 5.3015 0.0
0.3133 0.1841 0.0
3.1778 7.1444 0.0
8.5502 -1.3234 0.0
4.4789 6.916 0.0
0.9761 -2.581 0.0
-1.4562 0.1458 0.0
7.8146 8.7193 0.0
-4.9212 9.1501 0.0
0.4746 7.9265 0.0
3.932 5.0248 0.0
-8.8019 -7.1197 0.0
6.8248 -9.0104 0.0
1.08 3.5171 0.0
3.0193 -7.3701 0.0
6.0254 -0.8433 0.0
1.1264 6.408 0.0
-7.5843 0.91 0.0
4.9352 -9.0034 0.0
1.5626 -3.8797 0.0
-8.7583 0.9051 0.0
-4.9336 -8.5886 0.0
6.102 5.3171 0.0
-7.3337 3.0152 0.0
4.6672 5.4627 0.0
4.5318 -1.1028 0.0
3.207 -3.2115 0.0
-1.1715 -6.2465 0.0
9.1146 1.3596 0.0
-1.4756 3.4478 0.0
7.6368 2.5562 0.0
-6.981 -7.4592 0.0
-1.7555 -1.1692 0.0
-8.8878 2.8989 0.0
-5.0308 -4.3915 0.0
-7.4193 4.8686 0.0
-7.2899 -5.4559 0.0
-6.7796 -4.0166 0.0
0.8581 -7.6702 0.0
-3.9453 -4.6071 0.0
-6.2539 -2.4168 0.0
4.4868 3.5745 0.0
1.7814 -0.4052 0.0
6.4215 8.9024 0.0
4.5522 8.9288 0.0
-8.8786 -8.8782 0.0
-9.2005 -4.5571 0.0
5.5064 3.6644 0.0
0.5606 9.0615 0.0
-6.0536 9.1599 0.0
6.4783 6.9313 0.0
2.208 -9.1013 0.0
5.5194 -3.1917 0.0
-8.9073 4.7175 0.0
9.0866 -3.6904 0.0
-1.9649 -4.7654 0.0
9.0685 -5.4761 0.0
-4.9525 -7.6765 0.0
-0.8709 -2.3332 0.0
3.23 -5.3956 0.0
9.0574 -7.2562 0.0
6.7195 0.8628 0.0
2.478 3.2837 0.0
6.6086 4.5783 0.0
-0.5642 5.256 0.0
-6.608 9.6214 0.0
8.0816 5.2234 0.0
7.989 7.6701 0.0
1.3564 5.193 0.0
0.4132 -0.8222 0.0
5.1821 7.4862 0.0
7.4954 -2.9874 0.0
1.2104 7.5684 0.0
3.8195 -9.0944 0.0
-7.4598 9.8868 0.0
-7.7963 -7.089 0.0
-4.366 -6.429 0.0
-3.9472 6.6477 0.0
-2.9688 -2.0153 0.0
0.618 -5.1662 0.0
2.0325 9.1428 0.0
8.4054 9.3072 0.0
-6.0414 -6.1167 0.0
-2.9654 6.8517 0.0
-3.0707 -5.3086 0.0
4.0688 2.2117 0.0
7.7895 -9.2873 0.0
-1.6556 1.4918 0.0
5.8417 -9.1706 0.0
-0.4117 -3.8838 0.0
-9.0212 -2.1937 0.0
-5.1524 7.2661 0.0
-0.3965 2.0042 0.0
-5.8467 -0.4031 0.0
3.6307 9.0726 0.0
9.1136 3.3703 0.0
-8.6315 9.8471 0.0
-1.5831 8.0533 0.0
8.7126 -6.3994 0.0
0.7041 -3.4889 0.0
-5.8472 -9.0503 0.0
1.492 1.557 0.0
-3.6001 -0.4861 0.0
5.9119 2.7026 0.0
6.3588 -1.6604 0.0
-7.9254 -9.0113 0.0
-3.8465 8.0631 0.0
-3.0556 7.9327 0.0
9.0404 4.7636 0.0
-6.2122 -7.1806 0.0
-2.7072 5.2763 0.0
-2.0977 -3.1545 0.0
-6.3504 8.4533 0.0
7.6841 3.4175 0.0
7.4159 4.3537 0.0
-9.2348 -0.5663 0.0
9.1917 0.3852 0.0
2.4149 6.6987 0.0
3.3974 -2.3203 0.0
-5.0294 -1.6405 0.0
2.5986 -0.8802 0.0
8.7403 -4.5035 0.0
-0.5419 3.5446 0.0
9.6354 9.8844 0.0
6.1212 7.7795 0.0
-7.3605 1.9888 0.0
-7.1936 3.894 0.0
5.3026 -0.3164 0.0
-9.2195 -3.6153 0.0
2.0048 -6.9453 0.0
-9.6221 9.8311 0.0
1.7456 -6.1027 0.0
7.6607 0.4457 0.0
-2.773 -6.5311 0.0
-7.6309 -1.0663 0.0
-7.2919 0.0189 0.0
1.8639 8.2212 0.0
0.7991 2.5533 0.0
-2.1437 -0.2468 0.0
8.6633 9.7557 0.0
-9.2284 -5.5174 0.0
6.6254 6.0996 0.0
-9.0866 -7.9882 0.0
-5.0312 5.0929 0.0
-2.4877 6.1117 0.0
-1.7555 4.321 0.0
-7.7616 -3.6402 0.0
9.222 -0.4627 0.0
3.5384 0.561 0.0
-3.5674 5.2092 0.0
-9.0664 1.8955 0.0
-6.3429 6.1885 0.0
-0.9763 6.8863 0.0
-9.1449 3.7618 0.0
2.2678 -5.3725 0.0
3.4617 -0.352 0.0
-6.5144 5.2179 0.0
4.6687 -3.1632 0.0
0.407 6.3819 0.0
-6.6345 -1.6805 0.0
1.0893 9.4442 0.0
-1.0384 5.8603 0.0
-4.3256 7.1758 0.0
-8.3066 9.874 0.0
8.2376 6.2651 0.0
9.1344 -8.268 0.0
-5.4689 -5.2779 0.0
5.7193 9.2787 0.0
3.997 3.0594 0.0
-0.9665 -3.1404 0.0
1.5748 6.8508 0.0
-3.4707 -3.7314 0.0
-9.2052 -6.3625 0.0
2.7189 7.806 0.0
-3.8147 -2.8669 0.0
2.7017 5.8024 0.0
3.4018 -6.3685 0.0
-5.0895 -3.3904 0.0
7.7103 -0.6378 0.0
-4.9595 -0.2436 0.0
-7.7825 9.8497 0.0
-6.6452 9.1395 0.0
5.0121 0.5928 0.0
-1.9034 -6.6362 0.0
-3.9187 -5.4872 0.0
-5.9751 -4.5547 0.0
0.9878 -0.2222 0.0
-4.9986 5.901 0.0
-0.1468 8.1009 0.0
-4.6927 8.5102 0.0
5.4351 2.0373 0.0
-7.7231 -2.6285 0.0
5.6979 1.182 0.0
-8.2845 -5.1699 0.0
9.2137 2.1787 0.0
-3.5631 -1.3004 0.0
-0.9979 -1.4843 0.0
0.403 -6.7251 0.0
2.5652 2.0731 0.0
-0.4371 -6.5798 0.0
9.2284 -1.9909 0.0
-5.5187 6.4239 0.0
-1.5327 -5.471 0.0
4.7658 8.1473 0.0
-7.8104 -6.1317 0.0
-0.0205 1.0381 0.0
-1.9898 2.7663 0.0
-0.6349 0.2054 0.0
0.9133 -5.9954 0.0
2.0675 0.57 0.0
0.5397 -9.2316 0.0
1.6421 -2.1612 0.0
4.2991 1.2056 0.0
5.6197 -8.4606 0.0
4.0571 -1.8566 0.0
-2.3622 -3.8693 0.0
7.8395 -2.1407 0.0
-0.2434 7.0006 0.0
7.0328 1.7929 0.0
8.4143 0.8994 0.0
1.9306 -4.5833 0.0
3.4192 -4.3696 0.0
7.1549 9.2381 0.0
2.5646 -3.6996 0.0
-1.0689 -4.4642 0.0
0.0336 4.8446 0.0
1.3078 -9.2349 0.0
-8.2787 -1.9986 0.0
7.6035 -8.5398 0.0
9.2278 -9.2603 0.0
2.4703 4.2534 0.0
-8.4415 -4.0273 0.0
-1.9121 0.7661 0.0
-1.6463 7.2102 0.0
8.3837 8.3243 0.0
3.0574 -9.4053 0.0
-9.2625 0.2103 0.0
2.9536 9.3538 0.0
8.4385 1.8461 0.0
6.4886 -3.2817 0.0
3.2888 5.2752 0.0
-2.3558 -1.5966 0.0
-5.1733 -6.0155 0.0
4.8697 -2.4054 0.0
-6.9431 -2.4315 0.0
2.5529 -8.2288 0.0
6.8203 -0.8091 0.0
-3.5566 -6.8021 0.0
-4.4912 9.5172 0.0
0.9675 4.5615 0.0
-6.405 7.6151 0.0
9.2492 -2.8213 0.0
8.2983 -3.2607 0.0
-6.3463 -3.0894 0.0
-4.7257 -9.3457 0.0
3.4759 -8.2838 0.0
-6.6393 -9.4453 0.0
-8.2376 5.107 0.0
0.3183 3.5006 0.0
8.3611 7.0486 0.0
5.306 -1.1264 0.0
1.0953 -4.4595 0.0
0.416 9.576 0.0
-9.4026 -1.5035 0.0
2.91 1.027 0.0
3.9477 -3.2186 0.0
-0.7333 2.854 0.0
-0.2004 -4.9436 0.0
4.3335 -8.472 0.0
2.1039 5.1301 0.0
7.7509 9.4529 0.0
3.3754 8.0794 0.0
-2.9409 -0.1753 0.0
0.5123 -8.2471 0.0
3.8937 7.4175 0.0
2.5507 -2.5907 0.0
1.3888 -3.046 0.0
7.0965 7.4271 0.0
1.8179 3.5959 0.0
0.7398 -1.8484 0.0
-0.7522 8.2528 0.0
-9.4661 2.3991 0.0
-5.6108 -7.451 0.0
0.2302 -2.4841 0.0
6.2739 -0.1587 0.0
-1.2443 -0.5414 0.0
-2.2657 6.8149 0.0
-1.1752 5.0411 0.0
-4.2385 -0.1547 0.0
0.4521 8.4938 0.0
1.6302 -8.2851 0.0
[...]
POINT_DATA 1169
SCALARS Fourier_Temperature_[K] double 1
LOOKUP_TABLE default
-0.435076285437
-0.385610327136
-0.423446460576
-0.474500576514
-0.477089398174
-0.0972943730609
-0.0519992049539
0.207962364083
0.266320749086
0.471847895035
0.474468245376
0.337238359196
0.330993258662
0.529119276859
0.470638944716
0.280325470183
0.23379388569
-0.0392047566008
-0.0978908198457
-0.484250203257
0.366076360941
0.348499325531
0.0689522877416
0.0712997379187
-0.166605764863
-0.170287938325
-0.453226888564
-0.447085142039
-0.343094497149
-0.342387451442
-0.362846078454
-0.445868028279
-0.383998272897
-0.343789379968
-0.299970085743
-0.25942672323
-0.218997228994
-0.178560647827
-0.148754903109
-0.122749413654
-0.104845742406
-0.0907091809101
0.0132733369955
0.0638963479868
0.12615095573
0.251335738588
0.274152669693
0.297777495709
0.341484180055
0.393198963241
0.438293977269
0.448756736899
0.394648315682
0.284349925124
0.266749024257
0.266823928771
0.421765034267
0.486625171889
0.535226767058
0.531008383114
0.521736616444
0.520570124654
0.504824853314
0.502368082722
0.494673926413
0.477347339276
0.466460785332
0.454409006933
0.446372823104
0.443730786589
0.445717875437
0.461456207075
0.462753671435
0.439888107312
0.391812432647
0.34572957201
0.312966237355
0.290039453092
0.284260572766
0.279221454773
0.161545334668
0.111023408301
0.0509953145045
-0.0796678968574
-0.0907897235261
-0.105499336092
-0.123049285552
-0.147920631332
-0.177302534949
-0.215268741492
-0.259997921786
-0.306045254773
-0.352684339594
-0.396377912371
-0.444359373297
-0.497067992933
-0.512699820026
-0.529864236425
-0.536437371755
-0.533141779436
-0.522002236791
-0.505141071545
-0.490473285673
-0.469010432583
-0.466641300204
-0.459786378773
-0.45282690819
-0.445586650392
-0.441249422505
-0.435463933798
0.433105184306
0.44043143675
0.426294654461
0.249745561643
0.195330118708
0.147110166134
0.00319876847066
-0.00165281621066
0.0113753185467
0.156723287287
0.2194016589
0.273941011196
-0.124158221683
-0.114034046665
-0.119125447351
-0.247555262359
-0.301941882144
-0.361213185696
-0.50751498
-0.514479816056
-0.50542228072
-0.347172547424
-0.29090828177
-0.237454003768
-0.190577845751
0.00566933082845
0.28753336996
-0.290051579458
-0.0877711406921
-0.0699677992684
-0.258676155839
-0.315853285702
0.345264408544
0.141156517608
-0.125748934464
-0.176068199327
-0.0609558638296
-0.0510719526811
0.199296245581
0.199141321011
-0.371739964811
0.373677709542
-0.185741038924
0.0378973406454
-0.00907416138202
-0.108863932191
0.0378860083405
-0.368111321787
-0.0907561707047
0.367264827953
0.234052045477
-0.185641707369
-0.207877944031
-0.273578922661
-0.314365146166
-0.0648425340082
0.0801990208978
-0.115830242082
-0.0780476962349
0.306006299435
-0.258838840485
-0.32007223619
-0.00940766943571
0.242281584896
0.405691529767
-0.246016381904
0.293744346685
-0.0215273489285
-0.113641323773
0.443852663267
0.132293909386
0.465274187863
0.459324650244
0.149285677868
0.46624089029
-0.384130099183
-0.117338853896
0.417149294996
-0.104468068623
-0.467887808992
-0.0998426540971
0.207506444313
0.307063642861
0.10084784895
-0.257619996387
-0.413347998931
0.371090410872
0.277940252726
0.408176086934
0.0656598810281
0.416480200606
-0.304502511478
-0.06986145479
-0.150547044451
0.114574088005
-0.225073922808
-0.10101933806
-0.436491843599
-0.40006925078
-0.156520063322
-0.202720046806
-0.0167856589177
-0.00708728224716
0.180001139395
-0.320212273293
-0.152810922019
0.2535818956
-0.33855818439
-0.0148865498728
-0.0959754004939
0.0767652562406
-0.0672670870908
-0.0642899205184
-0.0256399085822
0.350367132671
-0.347242619635
0.128599091563
-0.255397834144
0.247001877056
0.209536733687
0.209601815169
0.249136107941
-0.0110169677951
-0.157271631941
0.4420564467
-0.133879295512
0.175173822171
-0.0110273453375
0.345424143257
-0.13350685334
-0.431996330591
-0.182435364646
0.349349367473
0.0403765284534
-0.0471741303038
-0.173175502826
-0.426701151309
-0.222752876737
-0.0504527800831
0.0188676723032
-0.340778807237
0.258219023722
-0.0695314056926
-0.201709667181
0.420604353275
-0.336937415473
-0.0922519769039
-0.123436448583
-0.303621601453
-0.0928420248463
0.435928821747
-0.236603010545
-0.0702503171197
0.475452957308
0.290525145971
-0.287628121491
0.44357007772
-0.23332354557
-0.231524455914
-0.144245358308
0.0572915192224
-0.436995298475
-0.012695657603
-0.360961790924
0.349203531945
0.0668223030522
0.497221187901
0.248436737158
0.395951861458
0.357901563583
0.332667515179
-0.076136565068
0.191594765774
0.312308425339
-0.229472639481
-0.108847687086
-0.293698346651
-0.224923307269
0.432631875756
0.432964705876
-0.265178473273
-0.0909361956964
0.284920293107
-0.291498405492
-0.132776553456
-0.27411106739
0.489248636723
-0.494624216552
0.0963591974266
-0.522606938413
0.279627181125
0.0259710286
-0.107669492118
-0.508875388271
-0.327449811526
-0.150193408983
-0.308884939901
-0.0220676454759
0.307469068081
-0.357702513084
-0.330688054847
-0.100992518646
-0.0439838996643
-0.248995293845
-0.388417093673
-0.0963946377362
-0.186102396327
0.3677316577
0.381861655483
0.22782736177
0.159850023839
0.137122656676
-0.0291140447089
-0.132395306256
-0.371696909434
0.302320106353
0.11210332965
0.14942602507
-0.214869734726
-0.385913098102
-0.000586598273126
-0.284726079802
0.0163358662027
0.44860985505
0.219897136436
-0.036074795287
0.294657660372
-0.189378864335
-0.420569334696
0.419495088316
0.0372691640438
-0.516098042976
-0.0316235848767
0.310544354127
-0.103173423902
0.159471018425
-0.287395682982
-0.320142288501
0.39015951
0.173391457392
0.119998768899
-0.405795011104
0.3164579329
0.0913388160585
0.0913475962608
0.270060354629
-0.357824522428
-0.3409029484
0.479317726244
-0.444269324152
-0.143279089252
-0.166536284589
0.247856216428
-0.143069532225
-0.503915161738
-0.0372261199311
-0.474026826952
-0.283549052991
0.44775581657
0.42007212951
-0.270935428468
0.442783141902
-0.0945089156824
0.471647185308
-0.0763889284093
-0.373703429576
0.139889846759
0.393153429136
0.39797217909
-0.12357076131
-0.0787077433319
0.0633481294232
-0.402460971211
0.429919493284
-0.300995761863
0.444373412498
0.218567777273
0.0797986876951
0.0107985169508
0.375618823146
-0.450936118862
-0.188047696237
0.13390883852
0.496948471849
0.271944921442
0.00189363658081
0.507543782514
-0.0876567332849
-0.184763797215
0.311066113865
-0.222972144457
-0.0622959990491
0.334985879681
-0.108721543125
-0.000258273723869
0.185341772132
0.413182566799
-0.342830862081
-0.483648731257
0.275297799466
-0.272096982316
-0.212100537624
0.035758448876
-0.110204928274
0.160395591343
0.429351840528
-0.151196622017
0.176122873475
-0.154499464209
-0.113534619216
0.248341098894
-0.379096691633
0.242899205742
0.374634832743
0.292623910877
-0.257208468734
0.0912746793455
0.196895288436
0.296797417332
-0.0730588318979
0.210526669379
-0.0416756461008
0.227553370686
-0.269859238729
0.379277312416
-0.283655332754
0.39719073991
-0.431206792689
0.163477459761
0.0292211250834
-0.037738462914
-0.147308812332
0.0107060769615
-0.467630066648
0.234221027558
0.0628094059601
-0.232081661087
0.381482005653
-0.0397245703667
-0.00556329382919
-0.0100780189954
-0.0472001948234
-0.123770449445
-0.0974497225818
-0.0871009596323
-0.223724693923
-0.271653540569
-0.203796107226
0.113431674932
-0.398482844835
-0.0334652627295
-0.336775072304
-0.405965271529
-0.0787674428415
-0.122452672437
-0.326359464645
-0.105388929984
0.0478069813261
-0.0499180096174
-0.110286514443
0.410074041716
-0.386588514161
-0.467283261167
-0.148089730661
0.405437952924
0.0236732571559
0.0365543372847
-0.348859770723
-0.159407020347
0.487797083681
-0.161178810346
-0.400331875594
-0.327245588455
-0.17530889082
0.0983776388825
0.263981004789
-0.243617433443
0.34519157863
-0.130309965949
-0.339664977438
0.185880702082
0.260953459125
-0.0832677407052
0.258770652547
-0.479193716141
-0.448343567278
0.318006714686
0.28698243229
-0.15957577274
0.333099782481
0.450473161875
-0.0625553564605
-0.336084118865
-0.278741413155
-0.0476150850532
-0.09784710874
0.474670139387
-0.156171374235
-0.1826238084
-0.0307012052927
0.00969113646462
-0.200037021924
-0.131790527321
-0.355223161546
-0.179883000086
0.115702208083
-0.0831708631904
-0.199788381198
-0.121432015638
-0.0668098403451
-0.308595780451
-0.123365669559
-0.0481862944403
-0.00768042455164
0.515881042976
0.295609384906
-0.0183499755596
-0.31319911998
0.0261432986284
0.0687053611361
0.0014998702136
0.197992372017
-0.07665462138
-0.106692650766
-0.3281220626
-0.296488969194
0.271262261332
-0.246428200813
0.0842071090194
0.277237189849
-0.0434580224809
0.456049618376
-0.0885381112964
-0.282291610254
-0.30605964381
-0.00226227976357
-0.174747113434
-0.0852622318332
0.331856306625
-0.215587911869
-0.0685416651707
-0.109619833425
-0.320964920887
0.328829991319
-0.170273211569
-0.36293310993
0.4538513526
0.216685349188
0.256018767313
0.282966151705
0.257808632599
0.176595768372
0.518663404639
-0.25829073994
-0.0472704197103
-0.194195736704
0.368700060282
0.421220047529
-0.22194594758
0.285560092389
0.521509311761
0.243140588661
0.0605310530892
-0.094271860805
0.260039841112
-0.385265691767
0.173134289853
-0.0153158531279
-0.0906365402595
-0.52061684599
-0.270833504554
-0.0578042730043
-0.233352784346
0.0276983977364
-0.528361058949
-0.2420594806
0.361805038528
-0.426387208314
-0.0381812408101
0.468550334934
-0.423007993603
0.333914249657
-0.423854892666
0.404348186727
-0.435076285437
-0.385610327136
-0.423446460576
-0.474500576514
-0.477089398174
-0.0972943730609
-0.0519992049539
0.207962364083
0.266320749086
0.337238359196
0.330993258662
0.280325470183
0.23379388569
-0.0392047566008
-0.0978908198457
-0.484250203257
0.366076360941
0.348499325531
0.0689522877416
0.0712997379187
-0.166605764863
-0.170287938325
-0.453226888564
-0.447085142039
-0.343094497149
-0.342387451442
-0.362846078454
-0.445868028279
-0.383998272897
-0.343789379968
-0.299970085743
-0.25942672323
-0.218997228994
-0.178560647827
-0.148754903109
-0.122749413654
-0.104845742406
-0.0907091809101
0.0132733369955
0.0638963479868
0.12615095573
0.251335738588
0.274152669693
0.297777495709
0.341484180055
0.393198963241
0.438293977269
0.448756736899
0.394648315682
0.284349925124
0.266749024257
0.266823928771
0.421765034267
0.486625171889
0.439888107312
0.391812432647
0.34572957201
0.312966237355
0.290039453092
0.284260572766
0.279221454773
0.161545334668
0.111023408301
0.0509953145045
-0.0796678968574
-0.0907897235261
-0.105499336092
-0.123049285552
-0.147920631332
-0.177302534949
-0.215268741492
-0.259997921786
-0.306045254773
-0.352684339594
-0.396377912371
-0.444359373297
-0.497067992933
-0.512699820026
-0.529864236425
-0.536437371755
-0.533141779436
-0.522002236791
-0.505141071545
-0.490473285673
-0.469010432583
-0.466641300204
-0.459786378773
-0.45282690819
-0.445586650392
-0.441249422505
-0.435463933798
0.433105184306
0.44043143675
0.426294654461
0.249745561643
0.195330118708
0.147110166134
0.00319876847066
-0.00165281621066
0.0113753185467
0.156723287287
0.2194016589
0.273941011196
-0.124158221683
-0.114034046665
-0.119125447351
-0.247555262359
-0.301941882144
-0.361213185696
-0.50751498
-0.514479816056
-0.50542228072
-0.347172547424
-0.29090828177
-0.237454003768
-0.190577845751
0.00566933082845
0.28753336996
-0.290051579458
-0.0877711406921
-0.0699677992684
-0.258676155839
-0.315853285702
0.345264408544
0.141156517608
-0.125748934464
-0.176068199327
-0.0609558638296
-0.0510719526811
0.199296245581
0.199141321011
-0.371739964811
0.373677709542
-0.185741038924
0.0378973406454
-0.00907416138202
-0.108863932191
0.0378860083405
-0.368111321787
-0.0907561707047
0.367264827953
0.234052045477
-0.185641707369
-0.207877944031
-0.273578922661
-0.314365146166
-0.0648425340082
0.0801990208978
-0.115830242082
-0.0780476962349
0.306006299435
-0.258838840485
-0.32007223619
-0.00940766943571
0.242281584896
0.405691529767
-0.246016381904
0.293744346685
-0.0215273489285
-0.113641323773
0.443852663267
0.132293909386
0.465274187863
0.459324650244
0.149285677868
0.46624089029
-0.384130099183
-0.117338853896
0.417149294996
-0.104468068623
-0.467887808992
-0.0998426540971
0.207506444313
0.307063642861
0.10084784895
-0.257619996387
-0.413347998931
0.371090410872
0.277940252726
0.408176086934
0.0656598810281
0.416480200606
-0.304502511478
-0.06986145479
-0.150547044451
0.114574088005
-0.225073922808
-0.10101933806
-0.436491843599
-0.40006925078
-0.156520063322
-0.202720046806
-0.0167856589177
-0.00708728224716
0.180001139395
-0.320212273293
-0.152810922019
0.2535818956
-0.33855818439
-0.0148865498728
-0.0959754004939
0.0767652562406
-0.0672670870908
-0.0642899205184
-0.0256399085822
0.350367132671
-0.347242619635
0.128599091563
-0.255397834144
0.247001877056
0.209536733687
0.209601815169
0.249136107941
-0.0110169677951
-0.157271631941
0.4420564467
-0.133879295512
0.175173822171
-0.0110273453375
0.345424143257
-0.13350685334
-0.431996330591
-0.182435364646
0.349349367473
0.0403765284534
-0.0471741303038
-0.173175502826
-0.426701151309
-0.222752876737
-0.0504527800831
0.0188676723032
-0.340778807237
0.258219023722
-0.0695314056926
-0.201709667181
0.420604353275
-0.336937415473
-0.0922519769039
-0.123436448583
-0.303621601453
-0.0928420248463
0.435928821747
-0.236603010545
-0.0702503171197
0.475452957308
0.290525145971
-0.287628121491
0.44357007772
-0.23332354557
-0.231524455914
-0.144245358308
0.0572915192224
-0.436995298475
-0.012695657603
-0.360961790924
0.349203531945
0.0668223030522
0.497221187901
0.248436737158
0.395951861458
0.357901563583
0.332667515179
-0.076136565068
0.191594765774
0.312308425339
-0.229472639481
-0.108847687086
-0.293698346651
-0.224923307269
0.432631875756
0.432964705876
-0.265178473273
-0.0909361956964
0.284920293107
-0.291498405492
-0.132776553456
-0.27411106739
0.489248636723
-0.494624216552
0.0963591974266
-0.522606938413
0.279627181125
0.0259710286
-0.107669492118
-0.508875388271
-0.327449811526
-0.150193408983
-0.308884939901
-0.0220676454759
0.307469068081
-0.357702513084
-0.330688054847
-0.100992518646
-0.0439838996643
-0.248995293845
-0.388417093673
-0.0963946377362
-0.186102396327
0.3677316577
0.381861655483
0.22782736177
0.159850023839
0.137122656676
-0.0291140447089
-0.132395306256
-0.371696909434
0.302320106353
0.11210332965
0.14942602507
-0.214869734726
-0.385913098102
-0.000586598273126
-0.284726079802
0.0163358662027
0.44860985505
0.219897136436
-0.036074795287
0.294657660372
-0.189378864335
-0.420569334696
0.419495088316
0.0372691640438
-0.516098042976
-0.0316235848767
0.310544354127
-0.103173423902
0.159471018425
-0.287395682982
-0.320142288501
0.39015951
0.173391457392
0.119998768899
-0.405795011104
0.3164579329
0.0913388160585
0.0913475962608
0.270060354629
-0.357824522428
-0.3409029484
0.479317726244
-0.444269324152
-0.143279089252
-0.166536284589
0.247856216428
-0.143069532225
-0.503915161738
-0.0372261199311
-0.474026826952
-0.283549052991
0.44775581657
0.42007212951
-0.270935428468
0.442783141902
-0.0945089156824
0.471647185308
-0.0763889284093
-0.373703429576
0.139889846759
0.393153429136
0.39797217909
-0.12357076131
-0.0787077433319
0.0633481294232
-0.402460971211
0.429919493284
-0.300995761863
0.444373412498
0.218567777273
0.0797986876951
0.0107985169508
0.375618823146
-0.450936118862
-0.188047696237
0.13390883852
0.496948471849
0.271944921442
0.00189363658081
0.507543782514
-0.0876567332849
-0.184763797215
0.311066113865
-0.222972144457
-0.0622959990491
0.334985879681
-0.108721543125
-0.000258273723869
0.185341772132
0.413182566799
-0.342830862081
-0.483648731257
0.275297799466
-0.272096982316
-0.212100537624
0.035758448876
-0.110204928274
0.160395591343
0.429351840528
-0.151196622017
0.176122873475
-0.154499464209
-0.113534619216
0.248341098894
-0.379096691633
0.242899205742
0.374634832743
0.292623910877
-0.257208468734
0.0912746793455
0.196895288436
0.296797417332
-0.0730588318979
0.210526669379
-0.0416756461008
0.227553370686
-0.269859238729
0.379277312416
-0.283655332754
0.39719073991
-0.431206792689
0.163477459761
0.0292211250834
-0.037738462914
-0.147308812332
0.0107060769615
-0.467630066648
0.234221027558
0.0628094059601
-0.232081661087
0.381482005653
-0.0397245703667
-0.00556329382919
-0.0100780189954
-0.0472001948234
-0.123770449445
-0.0974497225818
-0.0871009596323
-0.223724693923
-0.271653540569
-0.203796107226
0.113431674932
-0.398482844835
-0.0334652627295
-0.336775072304
-0.405965271529
-0.0787674428415
-0.122452672437
-0.326359464645
-0.105388929984
0.0478069813261
-0.0499180096174
-0.110286514443
0.410074041716
-0.386588514161
-0.467283261167
-0.148089730661
0.405437952924
0.0236732571559
0.0365543372847
-0.348859770723
-0.159407020347
0.487797083681
-0.161178810346
-0.400331875594
-0.327245588455
-0.17530889082
0.0983776388825
0.263981004789
-0.243617433443
0.34519157863
-0.130309965949
-0.339664977438
0.185880702082
0.260953459125
-0.0832677407052
0.258770652547
-0.479193716141
-0.448343567278
0.318006714686
0.28698243229
-0.15957577274
0.333099782481
0.450473161875
-0.0625553564605
-0.336084118865
-0.278741413155
-0.0476150850532
-0.09784710874
0.474670139387
-0.156171374235
-0.1826238084
-0.0307012052927
0.00969113646462
-0.200037021924
-0.131790527321
-0.355223161546
-0.179883000086
0.115702208083
-0.0831708631904
-0.199788381198
-0.121432015638
-0.0668098403451
-0.308595780451
-0.123365669559
-0.0481862944403
-0.00768042455164
0.515881042976
0.295609384906
-0.0183499755596
-0.31319911998
0.0261432986284
0.0687053611361
0.0014998702136
0.197992372017
-0.07665462138
-0.106692650766
-0.3281220626
-0.296488969194
0.271262261332
-0.246428200813
0.0842071090194
0.277237189849
-0.0434580224809
0.456049618376
-0.0885381112964
-0.282291610254
-0.30605964381
-0.00226227976357
-0.174747113434
-0.0852622318332
0.331856306625
-0.215587911869
-0.0685416651707
-0.109619833425
-0.320964920887
0.328829991319
-0.170273211569
-0.36293310993
0.4538513526
0.216685349188
0.256018767313
0.282966151705
0.257808632599
0.176595768372
0.518663404639
-0.25829073994
-0.0472704197103
-0.194195736704
0.368700060282
0.421220047529
-0.22194594758
0.285560092389
0.521509311761
0.243140588661
0.0605310530892
-0.094271860805
0.260039841112
-0.385265691767
0.173134289853
-0.0153158531279
-0.0906365402595
-0.52061684599
-0.270833504554
-0.0578042730043
-0.233352784346
0.0276983977364
-0.528361058949
-0.2420594806
0.361805038528
-0.426387208314
-0.0381812408101
0.468550334934
-0.423007993603
0.333914249657
-0.423854892666
0.404348186727
VECTORS Thermal_Flux_[W/m/m] double
2.65718004881 0.0369545033861 0.0
1.9006112801 -0.717652574759 0.0
2.28433319553 2.75217764817 0.0
2.15848971091 1.52557024949 0.0
2.78483239539 2.05239570211 0.0
0.29756774217 0.337466819103 0.0
2.03008237899 0.975436878309 0.0
2.03534267535 -1.93685346324 0.0
0.386499419924 -1.4113386642 0.0
1.98199825309 1.8934356046 0.0
2.54661771498 1.40498029896 0.0
1.39550316875 -1.3161476826 0.0
2.88081975604 1.84099675818 0.0
2.9582070742 -0.0603562425517 0.0
2.58817489204 0.41501302509 0.0
0.281865331241 -0.784850056765 0.0
2.19444458406 1.08091347541 0.0
1.78697071514 -1.15919327788 0.0
0.292083909816 -0.239188391556 0.0
2.98005356279 0.764263015264 0.0
2.54994932753 -1.10673173192 0.0
2.90642254189 1.61044661788 0.0
2.47661224111 -0.806726369938 0.0
2.60177822849 1.51659677297 0.0
1.84356632682 -1.21331405068 0.0
2.29114336565 1.07954959429 0.0
2.19174156745 -1.34983736335 0.0
2.40246662945 1.30090802596 0.0
0.260735134984 -0.579169115041 0.0
0.378790548357 0.437586932047 0.0
0.341850161028 1.48526965843 0.0
2.61196701752 2.63651591958 0.0
1.9451352453 1.90629083033 0.0
2.13667074857 0.990542877462 0.0
2.07010739435 0.465224420933 0.0
2.16164228189 0.126189533497 0.0
2.0517468388 -0.110535460664 0.0
1.86048652071 -0.182875187434 0.0
1.57045019532 -0.118024167136 0.0
1.22775962716 0.00520586465528 0.0
0.78237017212 0.140979017939 0.0
0.266701840173 0.989726739097 0.0
2.70513201846 0.133278732051 0.0
2.81656945368 -0.0322220928421 0.0
3.17453558978 -0.261242441983 0.0
0.295444942399 -1.93022174245 0.0
0.87866601496 -1.21298090085 0.0