# vtk DataFile Version 2.0
Really cool data
ASCII
DATASET UNSTRUCTURED_GRID
POINTS 127 float
5.0 5.0 0.0
-5.0 5.0 0.0
-5.0 -5.0 0.0
5.0 -5.0 0.0
-2.5 -2.5 0.0
-2.5 2.5 0.0
2.5 2.5 0.0
2.5 -2.5 0.0
4.0 5.0 0.0
3.0 5.0 0.0
2.0 5.0 0.0
1.0 5.0 0.0
0.0 5.0 0.0
-1.0 5.0 0.0
-2.0 5.0 0.0
-3.0 5.0 0.0
-4.0 5.0 0.0
-5.0 4.0 0.0
-5.0 3.0 0.0
-5.0 2.0 0.0
-5.0 1.0 0.0
-5.0 0.0 0.0
-5.0 -1.0 0.0
-5.0 -2.0 0.0
-5.0 -3.0 0.0
-5.0 -4.0 0.0
-4.0 -5.0 0.0
-3.0 -5.0 0.0
-2.0 -5.0 0.0
-1.0 -5.0 0.0
0.0 -5.0 0.0
1.0 -5.0 0.0
2.0 -5.0 0.0
3.0 -5.0 0.0
4.0 -5.0 0.0
5.0 -4.0 0.0
5.0 -3.0 0.0
5.0 -2.0 0.0
5.0 -1.0 0.0
5.0 0.0 0.0
5.0 1.0 0.0
5.0 2.0 0.0
5.0 3.0 0.0
5.0 4.0 0.0
-2.5 -1.5 0.0
-2.5 -0.5 0.0
-2.5 0.5 0.0
-2.5 1.5 0.0
-1.5 2.5 0.0
-0.5 2.5 0.0
0.5 2.5 0.0
1.5 2.5 0.0
2.5 1.5 0.0
2.5 0.5 0.0
2.5 -0.5 0.0
2.5 -1.5 0.0
1.5 -2.5 0.0
0.5 -2.5 0.0
-0.5 -2.5 0.0
-1.5 -2.5 0.0
3.5627 -3.6018 0.0
3.5022 3.6735 0.0
-3.4895 -3.706 0.0
-3.5625 3.5625 0.0
-3.8 -1.5 0.0
1.5 -3.8 0.0
1.5828 3.7531 0.0
3.7531 -1.5828 0.0
-1.0 3.7 0.0
3.7 1.0 0.0
-3.4685 0.0001 0.0
-0.0001 -3.4685 0.0
-1.996 -3.6529 0.0
-3.6529 1.996 0.0
3.9814 2.2345 0.0
-2.3021 3.7604 0.0
0.1992 4.0047 0.0
4.0047 -0.1992 0.0
2.6471 -4.0209 0.0
-4.1253 -2.4849 0.0
3.9828 -2.661 0.0
2.6563 3.9887 0.0
-0.9779 -3.4362 0.0
-3.4362 0.9779 0.0
-2.7919 -4.1789 0.0
-4.155 2.8041 0.0
-4.1553 -0.4629 0.0
0.4629 -4.1553 0.0
-3.2848 -0.7926 0.0
0.7926 -3.2848 0.0
-4.287 1.2958 0.0
-1.2958 -4.287 0.0
4.1646 -4.1646 0.0
-4.1646 -4.1646 0.0
4.1646 4.1646 0.0
-4.1646 4.1646 0.0
2.2122 -3.1939 0.0
-3.2563 -2.1681 0.0
3.1695 -2.2429 0.0
2.2225 3.1929 0.0
4.2404 1.564 0.0
-1.567 4.2308 0.0
0.7165 3.3775 0.0
3.3775 -0.7165 0.0
4.2509 0.4845 0.0
-0.4847 4.2503 0.0
-2.8267 -3.3787 0.0
-3.2756 2.7869 0.0
4.1763 3.0131 0.0
-3.0131 4.1763 0.0
-0.4789 -4.2593 0.0
-4.2593 0.4789 0.0
3.2759 1.6721 0.0
-1.6721 3.2759 0.0
3.2023 2.8602 0.0
-0.0948 3.3888 0.0
3.3889 0.0948 0.0
3.3995 -4.3275 0.0
4.3379 -3.4609 0.0
3.4646 4.3654 0.0
-4.257 -3.3837 0.0
4.2396 -0.865 0.0
0.865 4.2396 0.0
3.0124 -3.0367 0.0
-3.4892 -4.4099 0.0
-4.3764 3.5062 0.0
-3.3699 -2.8768 0.0
CELLS 194 776
3 52 53 112
3 48 49 113
3 53 69 112
3 49 68 113
3 31 32 65
3 22 23 64
3 45 46 70
3 57 58 71
3 4 59 72
3 5 47 73
3 49 68 115
3 53 69 116
3 5 75 107
3 63 75 107
3 37 67 121
3 10 66 122
3 37 38 121
3 10 11 122
3 32 65 78
3 23 64 79
3 37 67 80
3 10 66 81
3 41 74 108
3 14 75 109
3 28 72 84
3 19 73 85
3 46 70 83
3 58 71 82
3 47 73 83
3 59 72 82
3 81 99 114
3 4 72 106
3 5 73 107
3 43 94 108
3 16 95 109
3 44 64 88
3 56 65 89
3 31 65 87
3 22 64 86
3 45 70 88
3 57 71 89
3 61 81 114
3 41 42 108
3 14 15 109
3 28 72 91
3 19 73 90
3 63 75 109
3 51 66 102
3 55 67 103
3 55 67 98
3 51 66 99
3 56 65 96
3 44 64 97
3 41 74 100
3 14 75 101
3 5 75 113
3 42 43 108
3 15 16 109
3 39 77 121
3 12 76 122
3 50 102 115
3 54 103 116
3 12 76 105
3 39 77 104
3 21 86 111
3 30 87 110
3 80 98 123
3 76 102 115
3 77 103 116
3 32 33 78
3 23 24 79
3 36 37 80
3 9 10 81
3 60 80 123
3 27 28 84
3 18 19 85
3 70 86 111
3 71 87 110
3 40 100 104
3 13 101 105
3 6 112 114
3 69 100 104
3 68 101 105
3 3 34 92
3 3 35 92
3 2 25 93
3 0 8 94
3 2 26 93
3 0 43 94
3 1 16 95
3 1 17 95
3 74 112 114
3 46 47 83
3 58 59 82
3 11 12 122
3 38 39 121
3 53 54 116
3 49 50 115
3 6 52 112
3 5 48 113
3 30 31 87
3 21 22 86
3 61 94 108
3 63 95 109
3 56 57 89
3 44 45 88
3 71 82 110
3 70 83 111
3 28 29 91
3 19 20 90
3 6 99 114
3 62 120 126
3 79 120 126
3 7 56 96
3 4 44 97
3 7 55 98
3 6 51 99
3 60 78 123
3 65 78 96
3 64 79 97
3 67 80 98
3 66 81 99
3 33 78 117
3 24 79 120
3 36 80 118
3 9 81 119
3 60 78 117
3 60 80 118
3 61 81 119
3 40 41 100
3 13 14 101
3 54 55 103
3 50 51 102
3 82 91 110
3 83 90 111
3 72 82 91
3 73 83 90
3 39 40 104
3 12 13 105
3 7 98 123
3 33 34 117
3 35 36 118
3 24 25 120
3 8 9 119
3 20 21 111
3 29 30 110
3 68 105 115
3 69 104 116
3 76 105 115
3 77 104 116
3 67 103 121
3 66 102 122
3 76 102 122
3 77 103 121
3 61 108 114
3 74 108 114
3 69 100 112
3 68 101 113
3 74 100 112
3 75 101 113
3 72 84 106
3 73 85 107
3 26 27 124
3 17 18 125
3 70 86 88
3 71 87 89
3 65 87 89
3 64 86 88
3 62 84 106
3 63 85 107
3 62 84 124
3 63 85 125
3 78 96 123
3 34 92 117
3 35 92 118
3 25 93 120
3 8 94 119
3 4 97 126
3 4 106 126
3 29 91 110
3 20 90 111
3 62 93 124
3 63 95 125
3 27 84 124
3 18 85 125
3 60 92 117
3 60 92 118
3 61 94 119
3 62 93 120
3 7 96 123
3 26 93 124
3 17 95 125
3 62 106 126
3 79 97 126
CELL_TYPES 194
5 5 5 5 5 5 5 5 5 5 5 5 5 5 5 5 5 5 5 5 5 5 5 5 5 5 5 5 5 5 5 5 5 5 5 5 5 5 5 5 5 5 5 5 5 5 5 5 5 5 5 5 5 5 5 5 5 5 5 5 5 5 5 5 5 5 5 5 5 5 5 5 5 5 5 5 5 5 5 5 5 5 5 5 5 5 5 5 5 5 5 5 5 5 5 5 5 5 5 5 5 5 5 5 5 5 5 5 5 5 5 5 5 5 5 5 5 5 5 5 5 5 5 5 5 5 5 5 5 5 5 5 5 5 5 5 5 5 5 5 5 5 5 5 5 5 5 5 5 5 5 5 5 5 5 5 5 5 5 5 5 5 5 5 5 5 5 5 5 5 5 5 5 5 5 5 5 5 5 5 5 5 5 5 5 5 5 5 5 5 5 5 5 5
POINT_DATA 127
SCALARS Temperature_(Fourier) double 1
LOOKUP_TABLE default
-0.464320664872
0.461239481901
0.461185549721
-0.464432636727
0.329568933127
0.317057263277
-0.344726503442
-0.332968927204
-0.409482581528
-0.327746420561
-0.207968078432
-0.110200373792
-0.0143429381927
0.109586970225
0.234011786192
0.321115360103
0.397044582263
0.473154781479
0.477402640938
0.476048494243
0.488884984399
0.489830780408
0.484267309072
0.477243432512
0.475283954424
0.471004151001
0.406451760995
0.326831936469
0.219598783536
0.102786606883
-0.0030590003946
-0.114284384934
-0.227597213408
-0.326334607306
-0.40831028828
-0.475324163436
-0.476474584961
-0.476913999271
-0.490950345267
-0.487851627446
-0.488893186544
-0.479092020356
-0.482972818638
-0.472388806778
0.432606510262
0.452768646087
0.452149496017
0.432283948595
0.175961847466
0.0779400736882
-0.0512279680574
-0.178009851031
-0.427969568727
-0.449684433566
-0.452177525479
-0.43015103623
-0.177680841661
-0.0555619880867
0.053271402557
0.168997281905
-0.38990138142
-0.383198327816
0.376119800407
0.384467658552
0.457675887084
-0.174368103202
-0.188506469524
-0.449890613669
0.0995325343501
-0.459126477539
0.461599318888
-0.00102582764298
0.222509628376
0.437040398022
-0.447769218296
0.273828938871
-0.0262290412683
-0.473717569917
-0.297490481564
0.449215707822
-0.437747946994
-0.300620023315
0.106735267714
0.455123469169
0.304312474802
0.444526883533
0.475814497994
-0.0561799360581
0.454861064061
-0.0942024664713
0.473928632532
0.141493576423
-0.436120274118
0.432148809208
-0.434689346411
0.429683669139
-0.261931068209
0.416174278106
-0.406448215624
-0.267477024394
-0.47031083916
0.160820045291
-0.088576731995
-0.456436889837
-0.477835359885
0.0579224798351
0.320587307064
0.376616374089
-0.44840264815
0.33460433346
0.0496322673644
0.478240619097
-0.432021359573
0.179518792396
-0.375182602398
0.00705071080684
-0.460881624365
-0.369877638984
-0.452384674423
-0.370900729639
0.441239521488
-0.477906352395
-0.104475168834
-0.354270844335
0.369105542063
0.452158158486
0.389779354158
SCALARS Temperature_(BTE) double 1
LOOKUP_TABLE default
-0.463147514082
0.462959557636
0.456214740262
-0.468588509755
0.379283925009
0.360000926897
-0.416219037868
-0.386403849108
-0.407743042739
-0.325627877403
-0.21011002095
-0.11484546978
-0.01438183125
0.109383419481
0.235777053381
0.325154641536
0.394018204431
0.484990753452
0.478449586395
0.494554792381
0.520378640296
0.526821083598
0.515387830889
0.497226782484
0.483113491372
0.476346708566
0.401716155369
0.330626678809
0.21961353519
0.0977387677149
-0.00968379830394
-0.116565850727
-0.220922807868
-0.321497187442
-0.403989627976
-0.487278563799
-0.484876835602
-0.505671126325
-0.497451153244
-0.511411253032
-0.498425524767
-0.499336817689
-0.498208482946
-0.477430276143
0.596720937698
0.595805230412
0.598844470154
0.591247368417
0.153957302664
0.0703975568016
-0.04536091405
-0.159835912187
-0.616012629191
-0.585358891578
-0.582405284982
-0.600502478811
-0.149501172264
-0.0425158401359
0.0464656652853
0.147904740853
-0.398851920814
-0.392904719994
0.380561507358
0.39485642528
0.541374665875
-0.1621364083
-0.184525702951
-0.544940355967
0.0910758611225
-0.556403780542
0.582427969493
0.00230597639101
0.212153632334
0.524616355369
-0.499945127232
0.27358272105
-0.0261564434361
-0.544314021558
-0.290284721262
0.482455519991
-0.470309153112
-0.303997563048
0.0957330666773
0.579774367957
0.308972611317
0.457812679716
0.550391278945
-0.0537788522205
0.579626809572
-0.0783416749565
0.537414741822
0.134373335742
-0.441133289529
0.431724979038
-0.438695311431
0.436696719777
-0.241126374324
0.528779722119
-0.518807066666
-0.257347821959
-0.50691593141
0.155647552935
-0.0845299309368
-0.568659714886
-0.530694428071
0.0553487214629
0.322565995195
0.403394585464
-0.472933078919
0.340556990077
0.0463300873081
0.550093784279
-0.549897538169
0.162891756573
-0.415724061768
0.00752399018286
-0.568734906611
-0.365547140758
-0.464814983444
-0.373411693834
0.449537582005
-0.523924532202
-0.106048991843
-0.368925049961
0.372047632671
0.461199200295
0.415588634614
VECTORS Flux_(Fourier) double
13.1862763272 -0.239483968871 0.0
13.2273320011 0.317883967257 0.0
13.2216572619 -0.297344024581 0.0
13.1751891139 0.283743430714 0.0
13.4686430201 -6.76357190863 0.0
13.4802519897 5.04466377012 0.0
12.1696373671 -6.93475609405 0.0
13.8905082984 8.19232142252 0.0
13.835177803 -0.295391961202 0.0
15.2097985417 -0.434283603436 0.0
16.8946586359 -0.429911527239 0.0
17.5659347286 -0.0472126036041 0.0
17.682452298 -0.0422308727907 0.0
17.5644941523 0.0896766098473 0.0
16.6882178927 0.542788146967 0.0
15.3175747636 0.118763495917 0.0
14.2446592889 0.494112720353 0.0
12.3259336734 0.677463048995 0.0
10.7614515626 1.25752665404 0.0
7.56706921143 1.80988664113 0.0
5.26008703942 0.692779481382 0.0
4.53812709816 0.0047101915859 0.0
5.06590429465 -0.999862163861 0.0
7.49613937949 -1.55073656866 0.0
10.4340417531 -1.32116474198 0.0
12.3825547152 -0.736743640439 0.0
13.9459008873 -0.3231881024 0.0
15.2922479785 -0.389908360934 0.0
16.9360156988 -0.420336007369 0.0
17.5873945076 -0.0848914310814 0.0
17.691898628 0.00919002173726 0.0
17.5211799164 0.111666396615 0.0
16.66242321 0.450706525717 0.0
15.2371568944 0.491885147722 0.0
13.8550158115 0.362295554692 0.0
12.3222661544 0.605060805758 0.0
10.6712911735 1.22803742429 0.0
7.15790373308 1.39374207757 0.0
5.59182928239 0.47947835798 0.0
4.45327987042 0.120082397197 0.0
5.28208949445 -0.617542960276 0.0
7.94537704209 -1.30229851499 0.0
10.3817943348 -0.995003309594 0.0
12.3935648054 -0.569079150497 0.0
2.2326559101 -4.98952145818 0.0
0.933620026819 -1.1380104257 0.0
1.05233613768 1.44759486813 0.0
1.67074580204 5.04914645022 0.0
16.8178674304 1.27235806251 0.0
17.6496291062 1.57340337086 0.0
17.9994975394 0.709750834712 0.0
18.7809745959 -0.431920352303 0.0
-0.435730172189 -5.80193447166 0.0
1.97803996696 -2.2764759161 0.0
0.954054318581 1.09766410739 0.0
2.37060893233 5.59670738541 0.0
18.6845429573 0.519001552975 0.0
18.0589582412 -0.303550733285 0.0
18.1281392109 -0.0143107180901 0.0
18.4642739043 -0.213235295256 0.0
13.4249525367 2.50441711952 0.0
13.8924633435 -2.21837526801 0.0
14.1097145403 -2.49938861246 0.0
13.6024337782 2.6666460381 0.0
5.12839590866 -2.82972757423 0.0
17.7488578255 0.704275662972 0.0
17.777922769 -0.903038999469 0.0
5.5068353218 3.42667379463 0.0
17.9648414542 0.223372707269 0.0
3.48223289606 -1.82235441038 0.0
2.4240693542 0.0227251329547 0.0
17.9875228053 -0.0141306827949 0.0
18.0048829619 -1.16643615515 0.0
6.19990664527 5.20848803673 0.0
8.18655435996 -3.09834082897 0.0
17.1958461923 2.34685886602 0.0
17.8209562245 -0.0774760121742 0.0
3.76682101868 0.373347836676 0.0
15.9629200984 1.84704320404 0.0
8.91994756522 -3.05790309775 0.0
10.0513592937 3.20477617676 0.0
15.8425033048 -1.91141282726 0.0
18.0372169383 -0.27971379227 0.0
3.25645352624 2.33580958395 0.0
15.8976021261 -1.49051399563 0.0
10.5495067067 2.76736803718 0.0
4.01574650682 -0.623589405831 0.0
17.7822572249 0.151162400266 0.0
2.40359080197 -2.15119213007 0.0
18.099291911 -0.0422295952736 0.0
5.20645895814 1.49827880558 0.0
17.5490471502 -0.306893641651 0.0
13.2287106507 0.849423618791 0.0
13.3254942516 -0.901686525087 0.0
13.1442141536 -0.85225508397 0.0
13.3605938001 0.959237002204 0.0
18.9020721322 2.77736386715 0.0
6.20893549067 -7.26016503553 0.0
7.31773517648 8.33705217191 0.0
18.9314453106 -3.16712579701 0.0
5.65373006978 -1.93249376844 0.0
17.6347460736 0.443089529894 0.0
17.9892597679 0.0758486700175 0.0
2.75961840268 1.93862650817 0.0
4.28234150302 -0.561298188852 0.0
17.7660814108 0.100496199782 0.0
16.8691249467 -4.21415335869 0.0
13.1763345493 6.60879409344 0.0
11.1449833964 -2.101622739 0.0
15.1150069838 1.15807674657 0.0
17.7596689844 -0.0832378484918 0.0
4.13939238043 0.608366019539 0.0
4.25955802448 -5.42556444356 0.0
17.9663300205 0.791590463415 0.0
13.2492434113 -5.69591647211 0.0
17.9642306054 0.109448984034 0.0
2.55596089206 -0.212454083019 0.0
14.3312225995 1.09281924274 0.0
11.9245568527 1.22159495502 0.0
14.3492619147 -1.05539858955 0.0
11.9301148187 -1.98259842066 0.0
4.83807646782 0.991914940952 0.0
17.6144072816 -0.194561751374 0.0
15.0101460687 6.29162651377 0.0
14.501529722 -0.969585581216 0.0
12.0153590622 1.3114840536 0.0
12.2717913394 -6.28536111264 0.0
VECTORS Flux_(BTE) double
1.71510405569 -0.0153587884056 -1.45492629159
1.70412753533 0.0130058723352 1.45844078296
1.69044557022 0.000689826355276 1.43350308682
1.69856566578 0.0161376421327 -1.47500520148
1.24471134229 -0.171565194839 1.20163451479
1.25467549977 0.139732773371 1.14521848841
1.0163241837 -0.151466919848 -1.32879099925
1.15614070169 0.175835805823 -1.22225439625
1.75965415447 -0.0338601175819 -1.27884631197
1.83645591694 -0.0389451928622 -1.02162479783
1.87633106914 -0.0254127901845 -0.668203526334
1.88142962293 -0.0110368594244 -0.368798716478
1.89032745714 -0.000841770027548 -0.0451480586169
1.91086909892 0.00285391599938 0.351287701926
1.88936288592 0.0301967016462 0.746497771902
1.8200371994 0.0189343327526 1.02352471693
1.73370388143 0.0269582551191 1.23677807313
1.67642149291 -0.00248790901814 1.53350622249
1.38647761013 0.0198964600818 1.49582450789
0.655029836521 0.0882165505042 1.55861877337
0.133163474266 -0.0107273462929 1.65496968783
-0.00272752756851 -0.00928226887256 1.67566969489
0.136594714201 -0.0284120451688 1.63272464463
0.651854351831 -0.0803700899669 1.56785045896
1.25752439458 -0.0714942177152 1.5140698053
1.62663099267 -0.017295887954 1.49914242356
1.73292647506 -0.0404852600241 1.26140132915
1.79861876294 -0.0215780225118 1.03955387499
1.86565548869 -0.00881681998198 0.693053354081
1.89147559272 0.00291815684187 0.306504812546
1.89759660849 -0.00637540404474 -0.0370572276843
1.86953243564 -0.00367312452951 -0.374774724428
1.85908799721 0.0153210296181 -0.695022928939
1.82835812733 0.0199474874633 -1.00613992802
1.7609210606 0.0163378470813 -1.266164983
1.57624314464 0.0145971907318 -1.53630838386
1.30243942446 0.0299489392921 -1.52327298237
0.589356447748 0.0363311645973 -1.60178002543
0.18805399699 0.00680792712858 -1.56205770827
-0.0391570198484 -0.0252969646607 -1.61362660806
0.152888409723 -0.0468194075404 -1.56474732429
0.721103315205 -0.0513258478599 -1.5766350055
1.27572588551 -0.015585662459 -1.57330667843
1.67248548984 -0.0228630161459 -1.49978498346
0.0902213658354 -0.0153150153506 1.9569434281
0.014756696875 0.0130404650005 1.93321678804
0.0291146941278 0.0170044643774 1.94623787509
0.0962845742072 0.0611733518097 1.93588345494
1.68788808567 0.00467133428607 0.472356348374
1.72477239089 0.0134411247869 0.21582199036
1.73420884337 0.012842938851 -0.14019286286
1.71837954113 0.0118353628736 -0.488968308245
0.0403147575742 0.00179568852509 -2.02467814668
-9.03342439164e-06 0.0283461948973 -1.89541543756
-0.00697097167813 -0.0164663032866 -1.88062504473
0.108205683715 0.00629492853824 -1.97343016579
1.6776524879 -0.00797777894817 -0.453770576736
1.67636100345 -0.00785366801804 -0.130167988314
1.67975006206 -0.00561703397877 0.139402343644
1.68047137314 -0.00713367572154 0.451826735798
1.57991106326 0.12425705491 -1.24981912964
1.70532867812 -0.121982224356 -1.23446611575
1.6664925571 -0.124529814529 1.18954298951
1.66498534037 0.114625864097 1.24053620987
0.259875727076 -0.0496025405457 1.74209248324
1.79714442904 0.00487967218173 -0.506393026109
1.82756494943 -0.0140506618589 -0.581931717746
0.342455532273 0.041692541716 -1.76037926452
1.80120859053 0.0103448944315 0.281251452867
0.0677769706015 -0.00601150406466 -1.7917655388
0.00891192260111 0.00866225514088 1.88303812064
1.74266061347 -0.00860500989202 0.00982553480788
1.77203854011 -0.0338474500975 0.660842318433
0.499801872703 0.147227552329 1.68710293472
0.782529657106 -0.154203345678 -1.5911753918
1.80521859621 0.0934931897509 0.855709618615
1.85107333253 -0.00152627710436 -0.0830687589952
-0.0808319804108 -0.015519559645 -1.73777751348
1.78283194491 0.0701403961 -0.908092009173
0.963314971236 -0.155316595936 1.52163754064
1.12620790382 0.147030158488 -1.48234329551
1.8129784709 -0.0954000188424 -0.95918950247
1.74251042586 -0.00758600227345 0.295939575935
0.0507264849174 0.0142100736403 1.88072652395
1.78129603435 -0.0584151643349 0.97108094509
1.2575216491 0.126203095197 1.43120029558
0.0143529016761 0.00745664865632 1.76633584555
1.83659701669 -0.0124556002132 -0.16818843157
0.0148958345944 0.00817554002733 1.87564750447
1.72688403755 -0.00784978635789 -0.237981970307
0.189971951525 0.015916711596 1.72438730411
1.84791073031 -0.00893360147154 0.423040184824
1.65052199512 0.0435943847687 -1.38676341944
1.69374783949 -0.0479381503746 1.35552633984
1.70710523697 -0.0535237419373 -1.37789241133
1.68510191979 0.0377600271287 1.37774222013
1.69990116435 0.0755414465939 -0.740469644157
0.597193215483 -0.184959608963 1.70941021979
0.697421847109 0.188879955457 -1.67501869324
1.73280076673 -0.0979673352113 -0.79623280924
0.354109739592 -0.0783744883405 -1.6046303147
1.88049536112 0.0125195539727 0.491736643452
1.78800647518 0.0076911774425 -0.263685584475
-0.0117947421447 -0.0187678897119 -1.8330123051
0.0104429934228 -0.02593482283 -1.69059392585
1.87101284202 0.0033191426717 0.173564190731
1.69133784269 -0.153029957661 1.00161645849
1.38122727692 0.231187861064 1.26432823851
1.35326843104 -0.0927125928403 -1.49476072717
1.78062453412 0.0639710770299 1.07332337428
1.85319906109 -0.00320128049278 0.146348151079
0.0185759760691 -0.0143193676308 1.76487197413
0.341141915563 -0.111306100652 -1.77861648298
1.76303255077 0.0233087688749 0.502682458854
1.31395000483 -0.217948481019 -1.31483939078
1.78327062486 0.00279419052157 0.0223646964878
-0.044256561493 0.00875042336802 -1.82925050331
1.75525718075 0.0499236103685 -1.14446358299
1.48414069273 0.0680453766232 -1.45929864971
1.76840036305 -0.0746593050882 -1.17280719772
1.49606419096 -0.104534596627 1.4066161482
0.0981314983206 -0.000393079343005 -1.66455099153
1.86702667005 -0.00721930076822 -0.337458685931
1.4988993363 0.235627649912 -1.14538884205
1.74704673923 -0.0730074375476 1.16899497435
1.61926363116 0.0352116260962 1.450305621
1.36967236668 -0.251686484219 1.2954233249