# vtk DataFile Version 2.0
Really cool data
ASCII
DATASET UNSTRUCTURED_GRID
POINTS 127 float
5.0 5.0 0.0
-5.0 5.0 0.0
-5.0 -5.0 0.0
5.0 -5.0 0.0
-2.5 -2.5 0.0
-2.5 2.5 0.0
2.5 2.5 0.0
2.5 -2.5 0.0
4.0 5.0 0.0
3.0 5.0 0.0
2.0 5.0 0.0
1.0 5.0 0.0
0.0 5.0 0.0
-1.0 5.0 0.0
-2.0 5.0 0.0
-3.0 5.0 0.0
-4.0 5.0 0.0
-5.0 4.0 0.0
-5.0 3.0 0.0
-5.0 2.0 0.0
-5.0 1.0 0.0
-5.0 0.0 0.0
-5.0 -1.0 0.0
-5.0 -2.0 0.0
-5.0 -3.0 0.0
-5.0 -4.0 0.0
-4.0 -5.0 0.0
-3.0 -5.0 0.0
-2.0 -5.0 0.0
-1.0 -5.0 0.0
0.0 -5.0 0.0
1.0 -5.0 0.0
2.0 -5.0 0.0
3.0 -5.0 0.0
4.0 -5.0 0.0
5.0 -4.0 0.0
5.0 -3.0 0.0
5.0 -2.0 0.0
5.0 -1.0 0.0
5.0 0.0 0.0
5.0 1.0 0.0
5.0 2.0 0.0
5.0 3.0 0.0
5.0 4.0 0.0
-2.5 -1.5 0.0
-2.5 -0.5 0.0
-2.5 0.5 0.0
-2.5 1.5 0.0
-1.5 2.5 0.0
-0.5 2.5 0.0
0.5 2.5 0.0
1.5 2.5 0.0
2.5 1.5 0.0
2.5 0.5 0.0
2.5 -0.5 0.0
2.5 -1.5 0.0
1.5 -2.5 0.0
0.5 -2.5 0.0
-0.5 -2.5 0.0
-1.5 -2.5 0.0
3.5627 -3.6018 0.0
3.5022 3.6735 0.0
-3.4895 -3.706 0.0
-3.5625 3.5625 0.0
-3.8 -1.5 0.0
1.5 -3.8 0.0
1.5828 3.7531 0.0
3.7531 -1.5828 0.0
-1.0 3.7 0.0
3.7 1.0 0.0
-3.4685 0.0001 0.0
-0.0001 -3.4685 0.0
-1.996 -3.6529 0.0
-3.6529 1.996 0.0
3.9814 2.2345 0.0
-2.3021 3.7604 0.0
0.1992 4.0047 0.0
4.0047 -0.1992 0.0
2.6471 -4.0209 0.0
-4.1253 -2.4849 0.0
3.9828 -2.661 0.0
2.6563 3.9887 0.0
-0.9779 -3.4362 0.0
-3.4362 0.9779 0.0
-2.7919 -4.1789 0.0
-4.155 2.8041 0.0
-4.1553 -0.4629 0.0
0.4629 -4.1553 0.0
-3.2848 -0.7926 0.0
0.7926 -3.2848 0.0
-4.287 1.2958 0.0
-1.2958 -4.287 0.0
4.1646 -4.1646 0.0
-4.1646 -4.1646 0.0
4.1646 4.1646 0.0
-4.1646 4.1646 0.0
2.2122 -3.1939 0.0
-3.2563 -2.1681 0.0
3.1695 -2.2429 0.0
2.2225 3.1929 0.0
4.2404 1.564 0.0
-1.567 4.2308 0.0
0.7165 3.3775 0.0
3.3775 -0.7165 0.0
4.2509 0.4845 0.0
-0.4847 4.2503 0.0
-2.8267 -3.3787 0.0
-3.2756 2.7869 0.0
4.1763 3.0131 0.0
-3.0131 4.1763 0.0
-0.4789 -4.2593 0.0
-4.2593 0.4789 0.0
3.2759 1.6721 0.0
-1.6721 3.2759 0.0
3.2023 2.8602 0.0
-0.0948 3.3888 0.0
3.3889 0.0948 0.0
3.3995 -4.3275 0.0
4.3379 -3.4609 0.0
3.4646 4.3654 0.0
-4.257 -3.3837 0.0
4.2396 -0.865 0.0
0.865 4.2396 0.0
3.0124 -3.0367 0.0
-3.4892 -4.4099 0.0
-4.3764 3.5062 0.0
-3.3699 -2.8768 0.0
CELLS 194 776
3 52 53 112
3 48 49 113
3 53 69 112
3 49 68 113
3 31 32 65
3 22 23 64
3 45 46 70
3 57 58 71
3 4 59 72
3 5 47 73
3 49 68 115
3 53 69 116
3 5 75 107
3 63 75 107
3 37 67 121
3 10 66 122
3 37 38 121
3 10 11 122
3 32 65 78
3 23 64 79
3 37 67 80
3 10 66 81
3 41 74 108
3 14 75 109
3 28 72 84
3 19 73 85
3 46 70 83
3 58 71 82
3 47 73 83
3 59 72 82
3 81 99 114
3 4 72 106
3 5 73 107
3 43 94 108
3 16 95 109
3 44 64 88
3 56 65 89
3 31 65 87
3 22 64 86
3 45 70 88
3 57 71 89
3 61 81 114
3 41 42 108
3 14 15 109
3 28 72 91
3 19 73 90
3 63 75 109
3 51 66 102
3 55 67 103
3 55 67 98
3 51 66 99
3 56 65 96
3 44 64 97
3 41 74 100
3 14 75 101
3 5 75 113
3 42 43 108
3 15 16 109
3 39 77 121
3 12 76 122
3 50 102 115
3 54 103 116
3 12 76 105
3 39 77 104
3 21 86 111
3 30 87 110
3 80 98 123
3 76 102 115
3 77 103 116
3 32 33 78
3 23 24 79
3 36 37 80
3 9 10 81
3 60 80 123
3 27 28 84
3 18 19 85
3 70 86 111
3 71 87 110
3 40 100 104
3 13 101 105
3 6 112 114
3 69 100 104
3 68 101 105
3 3 34 92
3 3 35 92
3 2 25 93
3 0 8 94
3 2 26 93
3 0 43 94
3 1 16 95
3 1 17 95
3 74 112 114
3 46 47 83
3 58 59 82
3 11 12 122
3 38 39 121
3 53 54 116
3 49 50 115
3 6 52 112
3 5 48 113
3 30 31 87
3 21 22 86
3 61 94 108
3 63 95 109
3 56 57 89
3 44 45 88
3 71 82 110
3 70 83 111
3 28 29 91
3 19 20 90
3 6 99 114
3 62 120 126
3 79 120 126
3 7 56 96
3 4 44 97
3 7 55 98
3 6 51 99
3 60 78 123
3 65 78 96
3 64 79 97
3 67 80 98
3 66 81 99
3 33 78 117
3 24 79 120
3 36 80 118
3 9 81 119
3 60 78 117
3 60 80 118
3 61 81 119
3 40 41 100
3 13 14 101
3 54 55 103
3 50 51 102
3 82 91 110
3 83 90 111
3 72 82 91
3 73 83 90
3 39 40 104
3 12 13 105
3 7 98 123
3 33 34 117
3 35 36 118
3 24 25 120
3 8 9 119
3 20 21 111
3 29 30 110
3 68 105 115
3 69 104 116
3 76 105 115
3 77 104 116
3 67 103 121
3 66 102 122
3 76 102 122
3 77 103 121
3 61 108 114
3 74 108 114
3 69 100 112
3 68 101 113
3 74 100 112
3 75 101 113
3 72 84 106
3 73 85 107
3 26 27 124
3 17 18 125
3 70 86 88
3 71 87 89
3 65 87 89
3 64 86 88
3 62 84 106
3 63 85 107
3 62 84 124
3 63 85 125
3 78 96 123
3 34 92 117
3 35 92 118
3 25 93 120
3 8 94 119
3 4 97 126
3 4 106 126
3 29 91 110
3 20 90 111
3 62 93 124
3 63 95 125
3 27 84 124
3 18 85 125
3 60 92 117
3 60 92 118
3 61 94 119
3 62 93 120
3 7 96 123
3 26 93 124
3 17 95 125
3 62 106 126
3 79 97 126
CELL_TYPES 194
5 5 5 5 5 5 5 5 5 5 5 5 5 5 5 5 5 5 5 5 5 5 5 5 5 5 5 5 5 5 5 5 5 5 5 5 5 5 5 5 5 5 5 5 5 5 5 5 5 5 5 5 5 5 5 5 5 5 5 5 5 5 5 5 5 5 5 5 5 5 5 5 5 5 5 5 5 5 5 5 5 5 5 5 5 5 5 5 5 5 5 5 5 5 5 5 5 5 5 5 5 5 5 5 5 5 5 5 5 5 5 5 5 5 5 5 5 5 5 5 5 5 5 5 5 5 5 5 5 5 5 5 5 5 5 5 5 5 5 5 5 5 5 5 5 5 5 5 5 5 5 5 5 5 5 5 5 5 5 5 5 5 5 5 5 5 5 5 5 5 5 5 5 5 5 5 5 5 5 5 5 5 5 5 5 5 5 5 5 5 5 5 5 5
POINT_DATA 127
SCALARS Fourier_Temperature_[K] double 1
LOOKUP_TABLE default
-0.464320664872
0.461239481901
0.461185549721
-0.464432636727
0.329568933127
0.317057263277
-0.344726503442
-0.332968927204
-0.409482581528
-0.327746420561
-0.207968078432
-0.110200373792
-0.0143429381927
0.109586970225
0.234011786192
0.321115360103
0.397044582263
0.473154781479
0.477402640938
0.476048494243
0.488884984399
0.489830780408
0.484267309072
0.477243432512
0.475283954424
0.471004151001
0.406451760995
0.326831936469
0.219598783536
0.102786606883
-0.0030590003946
-0.114284384934
-0.227597213408
-0.326334607306
-0.40831028828
-0.475324163436
-0.476474584961
-0.476913999271
-0.490950345267
-0.487851627446
-0.488893186544
-0.479092020356
-0.482972818638
-0.472388806778
0.432606510262
0.452768646087
0.452149496017
0.432283948595
0.175961847466
0.0779400736882
-0.0512279680575
-0.178009851031
-0.427969568727
-0.449684433566
-0.452177525479
-0.43015103623
-0.177680841661
-0.0555619880867
0.053271402557
0.168997281905
-0.38990138142
-0.383198327816
0.376119800407
0.384467658552
0.457675887084
-0.174368103202
-0.188506469524
-0.449890613669
0.0995325343501
-0.459126477539
0.461599318888
-0.00102582764298
0.222509628376
0.437040398022
-0.447769218296
0.273828938871
-0.0262290412683
-0.473717569917
-0.297490481564
0.449215707822
-0.437747946994
-0.300620023315
0.106735267714
0.455123469169
0.304312474802
0.444526883533
0.475814497994
-0.0561799360581
0.454861064061
-0.0942024664713
0.473928632532
0.141493576423
-0.436120274118
0.432148809208
-0.434689346411
0.429683669139
-0.261931068209
0.416174278106
-0.406448215624
-0.267477024394
-0.47031083916
0.160820045291
-0.088576731995
-0.456436889837
-0.477835359885
0.0579224798351
0.320587307064
0.376616374089
-0.44840264815
0.33460433346
0.0496322673644
0.478240619097
-0.432021359573
0.179518792396
-0.375182602398
0.00705071080684
-0.460881624365
-0.369877638984
-0.452384674423
-0.370900729639
0.441239521488
-0.477906352395
-0.104475168834
-0.354270844335
0.369105542063
0.452158158486
0.389779354158
VECTORS Thermal_Flux_[W/m/m] double
0.083553274898 -0.00151746174495 0.0
0.0838134193027 0.0020142340296 0.0
0.0837774619916 -0.00188408512067 0.0
0.0834830220871 0.00179790657186 0.0
0.0853424579342 -0.0428565706461 0.0
0.0854160167923 0.0319649132397 0.0
0.07711146279 -0.0439412589195 0.0
0.0880155571999 0.0519096723658 0.0
0.087664962083 -0.00187171610276 0.0
0.096375083243 -0.00275178650904 0.0
0.107050999258 -0.00272408336713 0.0
0.111304460547 -0.000299157059181 0.0
0.112042760296 -0.000267590913153 0.0
0.111295332506 0.000568225194784 0.0
0.105742911991 0.00343931267097 0.0
0.0970579944817 0.00075253079611 0.0
0.090259592918 0.0031308866074 0.0
0.0781018157846 0.00429266420341 0.0
0.0681886605742 0.00796816839035 0.0
0.04794783594 0.0114681318902 0.0
0.0333299172175 0.00438971495936 0.0
0.0287553037375 2.98455699422e-05 0.0
0.0320995013024 -0.00633550792994 0.0
0.0474983974784 -0.0098260582139 0.0
0.066114067176 -0.00837140358153 0.0
0.0784605882956 -0.00466828863522 0.0
0.0883665457652 -0.0020478430524 0.0
0.0968975143136 -0.00247060805172 0.0
0.107313053378 -0.00266340922197 0.0
0.11144043789 -0.000537904477477 0.0
0.112102615845 5.82314819948e-05 0.0
0.111020876992 0.000707560868717 0.0
0.105579467045 0.00285584840687 0.0
0.096548436198 0.00311677185781 0.0
0.0877906632694 0.00229564278227 0.0
0.0780785769857 0.00383389598239 0.0
0.0676173699697 0.00778131338605 0.0
0.0453552074493 0.00883128125447 0.0
0.0354319625664 0.00303815770715 0.0
0.0282176793493 0.00076088785753 0.0
0.0334693331624 -0.00391298767302 0.0
0.0503449386085 -0.00825185997341 0.0
0.0657830076112 -0.00630472037656 0.0
0.0785303524255 -0.00360590249441 0.0
0.0141469591855 -0.0316155105248 0.0
0.0059157724907 -0.00721086799458 0.0
0.00666800303703 0.00917251307019 0.0
0.0105864824776 0.0319933172101 0.0
0.106564420898 0.00806214584982 0.0
0.111834780037 0.00996968371579 0.0
0.114051679839 0.00449725192544 0.0
0.119003416456 -0.00273681204872 0.0
-0.00276095252025 -0.0367632691613 0.0
0.0125336154816 -0.0144246194526 0.0
0.00604525195515 0.00695521833723 0.0
0.0150210821375 0.0354628720872 0.0
0.118392388823 0.00328859174131 0.0
0.114428445519 -0.00192341319372 0.0
0.114866802523 -9.06781666717e-05 0.0
0.116996680112 -0.00135114013998 0.0
0.0850656183714 0.0158689418343 0.0
0.0880279451113 -0.0140564715919 0.0
0.0894045315347 -0.0158370792961 0.0
0.0861902071938 0.0168968861222 0.0
0.0324954719976 -0.0179302329202 0.0
0.11246353104 0.00446255914955 0.0
0.112647697604 -0.00572199944049 0.0
0.0348934084228 0.0217127117956 0.0
0.113832085669 0.00141537464801 0.0
0.0220647554476 -0.0115471324303 0.0
0.0153598277556 0.000143995107773 0.0
0.113975803357 -8.95373943913e-05 0.0
0.114085803929 -0.00739098425543 0.0
0.0392849726049 0.0330029662611 0.0
0.0518731300584 -0.0196322689277 0.0
0.108959438462 0.0148705926612 0.0
0.112920373988 -0.000490917555691 0.0
0.0238680143095 0.00236567425529 0.0
0.101147148601 0.011703570041 0.0
0.0565201890588 -0.0193760400434 0.0
0.0636892451916 0.0203066838765 0.0
0.10038414188 -0.0121114405187 0.0
0.114290684333 -0.00177237324613 0.0
0.020634131268 0.0148005801967 0.0
0.100733269022 -0.00944446502761 0.0
0.0668456971503 0.017535099115 0.0
0.0254453011206 -0.00395130025764 0.0
0.11267516237 0.000957822608165 0.0
0.01523006784 -0.0136307736121 0.0
0.11468401503 -0.000267582818317 0.0
0.0329901092455 0.00949366582426 0.0
0.111197454411 -0.00194459513582 0.0
0.0838221549527 0.00538227194431 0.0
0.0844354127529 -0.00571342964709 0.0
0.0832867529271 -0.00540021318736 0.0
0.0846578168757 0.00607809141481 0.0
0.119770736622 0.0175984365052 0.0
0.0393421828122 -0.0460031740551 0.0
0.0463679604204 0.0528267415816 0.0
0.11995685628 -0.0200681167138 0.0
0.0358241895588 -0.0122450174004 0.0
0.111740475467 0.00280758421688 0.0
0.113986809415 0.00048060609526 0.0
0.0174859944758 0.0122838767778 0.0
0.0271345486725 -0.00355659935446 0.0
0.112572666244 0.00063678224225 0.0
0.106889208067 -0.026702482589 0.0
0.0834902800026 0.0418758393903 0.0
0.0706188645186 -0.0133166830489 0.0
0.0957744477869 0.00733801585515 0.0
0.112532034665 -0.000527426747658 0.0
0.0262287685236 0.00385483907723 0.0
0.0269901838649 -0.0343784451487 0.0
0.113841517792 0.00501581901936 0.0
0.0839522583533 -0.0360914986902 0.0
0.113828215097 0.00069351049708 0.0
0.0161955428314 -0.00134619008136 0.0
0.0908080910615 0.00692451942741 0.0
0.0755585391989 0.00774049144418 0.0
0.0909223950414 -0.00668740789981 0.0
0.0755937565907 -0.0125624995824 0.0
0.0306558973181 0.00628515129522 0.0
0.111611601126 -0.00123281744549 0.0
0.0951100090445 0.0398661446657 0.0
0.0918872219301 -0.00614366395747 0.0
0.0761338966223 0.00831006304857 0.0
0.0777587493112 -0.0398264446951 0.0
SCALARS BTE_Temperature_[K] double 1
LOOKUP_TABLE default
-0.468353951891
0.462119568292
0.459444030918
-0.470834981714
0.384620672418
0.360328205513
-0.417213257134
-0.393911146098
-0.416388808219
-0.336271139062
-0.216850114323
-0.118310192827
-0.017375247216
0.108303523139
0.239313942502
0.329992868606
0.3997769445
0.479299924967
0.4801332203
0.49179558484
0.511932725632
0.518275987465
0.511591345165
0.496445495096
0.484580534637
0.475686939791
0.407814711388
0.335484447001
0.223298911914
0.0996971649874
-0.00920131594078
-0.119427077864
-0.231365591969
-0.333514125376
-0.413952194367
-0.485602694561
-0.486954636607
-0.50143204674
-0.499791504524
-0.509755717162
-0.502181557474
-0.499243817409
-0.496905847721
-0.480737706347
0.572867527837
0.584280499694
0.585020376205
0.568709205216
0.160231123435
0.0714654328019
-0.051673568354
-0.174075428687
-0.589218770804
-0.573215707544
-0.575008396952
-0.573662746725
-0.162960056406
-0.046511398298
0.0483268595002
0.155632334104
-0.408792267254
-0.402718756988
0.3910872124
0.400008509328
0.528455714772
-0.172010570616
-0.193315927305
-0.529021146439
0.0937100075022
-0.545189379897
0.567532801488
0.000158117002902
0.219982616575
0.510894562773
-0.495050991008
0.28242490898
-0.0292818667415
-0.534273435372
-0.304923431371
0.482788702859
-0.471851900815
-0.314108232619
0.0988077719467
0.560994223213
0.315290460109
0.46117031991
0.536877346144
-0.0571741178037
0.565767087727
-0.0853026746716
0.522606377184
0.137355619265
-0.44616690043
0.436506932692
-0.445101297519
0.436512769798
-0.261516995666
0.515862382176
-0.506712607021
-0.275425910349
-0.5074484602
0.157892031313
-0.0908540564262
-0.556833861752
-0.523996148086
0.055053188904
0.33782321925
0.410225649642
-0.473338411742
0.345198647701
0.0460902838955
0.535165468562
-0.536552573878
0.169367390149
-0.421208209249
0.00542582644249
-0.558102572247
-0.377939105961
-0.467889047808
-0.382710468021
0.455255996505
-0.518139456396
-0.110714584654
-0.386530468635
0.377617265123
0.461174157417
0.428792940737
VECTORS BTE_Thermal_Flux_[W/m/m] double
2.98235357467 -0.0281679149428 0.0
2.96529408809 0.0222839456228 0.0
2.9516940076 -0.00593098785907 0.0
2.96552693946 0.029342994489 0.0
2.23801545684 -0.319178301128 0.0
2.24423820475 0.260600505358 0.0
1.83694348588 -0.286354480638 0.0
2.08845846573 0.326497697696 0.0
3.06555994299 -0.0590683747096 0.0
3.20832678286 -0.0692168440514 0.0
3.28591304732 -0.0476229826599 0.0
3.29737200473 -0.0217955630891 0.0
3.31139700144 -0.000885302476861 0.0
3.34968830701 0.00589102877099 0.0
3.31249377362 0.0546103745623 0.0
3.18119345682 0.0346272282803 0.0
3.02345106832 0.0471812811799 0.0
2.91712940347 -0.000775833811258 0.0
2.45170713429 0.0432854677655 0.0
1.23891475755 0.16571820673 0.0
0.315352524356 -0.0165227718084 0.0
0.0659222941839 -0.0124740465115 0.0
0.317421368994 -0.0524399195559 0.0
1.23536535509 -0.149899178576 0.0
2.24995643768 -0.13346272307 0.0
2.85095892931 -0.0365404156067 0.0
3.03006026045 -0.0779744686741 0.0
3.15226185904 -0.041098382007 0.0
3.28069041136 -0.0171117436042 0.0
3.3247897831 0.00814437280323 0.0
3.33364600919 -0.0146636056376 0.0
3.28464435283 -0.0075331502645 0.0
3.26686976141 0.0329350536608 0.0
3.20605759895 0.040616161346 0.0
3.07861078939 0.0346334559802 0.0
2.76574302691 0.0253570357888 0.0
2.32316222565 0.0535883682766 0.0
1.12904405398 0.0647465974434 0.0
0.421089401978 0.0124520008193 0.0
0.000611097326781 -0.0422435587814 0.0
0.354560456789 -0.0815058121756 0.0
1.34944911538 -0.0919517572755 0.0
2.26346405427 -0.0273159345918 0.0
2.91096924316 -0.0427088765245 0.0
0.230574450231 -0.034751528427 0.0
0.0910630178258 0.021236540592 0.0
0.119003085362 0.0347288436991 0.0
0.2398812566 0.118628224949 0.0
2.96669020232 0.00814813462634 0.0
3.0348431983 0.0256235466465 0.0
3.05510808032 0.025308055829 0.0
3.02989704389 0.0247287051943 0.0
0.147498240246 -0.0108855840453 0.0
0.0707184298071 0.0442069998397 0.0
0.0510525316265 -0.0309483047201 0.0
0.269336829381 0.020345566404 0.0
2.97832468545 -0.0190880358546 0.0
2.97495639731 -0.0161945573089 0.0
2.98083204277 -0.0128863877604 0.0
2.98104201398 -0.0138582508274 0.0
2.78393663624 0.229380863416 0.0
2.97746213839 -0.223872075876 0.0
2.93485102431 -0.23336454356 0.0
2.91451217252 0.215802705883 0.0
0.539127761037 -0.0950500027029 0.0
3.17284985305 0.010008482323 0.0
3.21063917972 -0.0272066923815 0.0
0.692873680288 0.0819382523215 0.0
3.17022365204 0.0195700489563 0.0
0.198729050281 -0.0161868280429 0.0
0.085365258673 0.0170255106054 0.0
3.08502956713 -0.0175177251382 0.0
3.13203220092 -0.0636748235473 0.0
0.960664125897 0.275937050429 0.0
1.45376749614 -0.280268762417 0.0
3.17483835405 0.174217423599 0.0
3.24862268238 -0.0029489700445 0.0
-0.0796712652332 -0.0272691413529 0.0
3.13885099804 0.133401030573 0.0
1.76270418721 -0.287280713121 0.0
2.03453617428 0.268848765628 0.0
3.17193455487 -0.178545521164 0.0
3.08323275541 -0.0136001190562 0.0
0.162532634054 0.0310263558462 0.0
3.13063516847 -0.111152402311 0.0
2.24920788474 0.238044942852 0.0
0.0954199438587 0.0148406356819 0.0
3.23435640179 -0.0257551607196 0.0
0.094739750729 0.0105156982997 0.0
3.06013097441 -0.0153975893688 0.0
0.419038453138 0.0321595724467 0.0
3.25355321592 -0.0133374264575 0.0
2.88922914549 0.0819722369354 0.0
2.9645952208 -0.0928017397545 0.0
2.97180035474 -0.0976324129866 0.0
2.93301385388 0.0697644087915 0.0
3.01793423504 0.141743965229 0.0
1.12600550712 -0.344290545808 0.0
1.3018257371 0.352640777093 0.0
3.05238005342 -0.186384723416 0.0
0.712415392319 -0.143446217896 0.0
3.30451460173 0.0229112906713 0.0
3.14651195654 0.0153127179596 0.0
0.0515343359277 -0.0309880772427 0.0
0.0917546822211 -0.0475930979769 0.0
3.28482529968 0.00691028992196 0.0
2.99795850091 -0.287660789966 0.0
2.46668118928 0.432283567422 0.0
2.39541806122 -0.168442660637 0.0
3.11214561508 0.117986067875 0.0
3.26327599608 -0.00558014935448 0.0
0.106202413606 -0.0225116635564 0.0
0.680926620497 -0.209941955853 0.0
3.10404010253 0.0437299953141 0.0
2.34188462056 -0.402217154982 0.0
3.13828006063 0.00439424623317 0.0
-0.0150223292072 0.0115315169589 0.0
3.07508933237 0.0966543568696 0.0
2.61842180374 0.123667094782 0.0
3.08324456733 -0.135265842328 0.0
2.64588974637 -0.194975961879 0.0
0.259345861358 0.00134959806011 0.0
3.27419639604 -0.0136488530316 0.0
2.67518814991 0.436637934863 0.0
3.06017957397 -0.136610597237 0.0
2.82768925366 0.0704212626824 0.0
2.452370017 -0.466935039196 0.0