# vtk DataFile Version 2.0
Really cool data
ASCII
DATASET UNSTRUCTURED_GRID
POINTS 1729 float
5.0 5.0 0.0
-5.0 5.0 0.0
-5.0 -5.0 0.0
5.0 -5.0 0.0
-2.5 -2.5 0.0
-2.5 2.5 0.0
2.5 2.5 0.0
2.5 -2.5 0.0
4.5 5.0 0.0
4.0 5.0 0.0
3.5 5.0 0.0
3.0 5.0 0.0
2.5 5.0 0.0
2.0 5.0 0.0
1.5 5.0 0.0
1.0 5.0 0.0
0.5 5.0 0.0
0.0 5.0 0.0
-0.5 5.0 0.0
-1.0 5.0 0.0
-1.5 5.0 0.0
-2.0 5.0 0.0
-2.5 5.0 0.0
-3.0 5.0 0.0
-3.5 5.0 0.0
-4.0 5.0 0.0
-4.5 5.0 0.0
-5.0 4.5 0.0
-5.0 4.0 0.0
-5.0 3.5 0.0
-5.0 3.0 0.0
-5.0 2.5 0.0
-5.0 2.0 0.0
-5.0 1.5 0.0
-5.0 1.0 0.0
-5.0 0.5 0.0
-5.0 0.0 0.0
-5.0 -0.5 0.0
-5.0 -1.0 0.0
-5.0 -1.5 0.0
-5.0 -2.0 0.0
-5.0 -2.5 0.0
-5.0 -3.0 0.0
-5.0 -3.5 0.0
-5.0 -4.0 0.0
-5.0 -4.5 0.0
-4.5 -5.0 0.0
-4.0 -5.0 0.0
-3.5 -5.0 0.0
-3.0 -5.0 0.0
-2.5 -5.0 0.0
-2.0 -5.0 0.0
-1.5 -5.0 0.0
-1.0 -5.0 0.0
-0.5 -5.0 0.0
0.0 -5.0 0.0
0.5 -5.0 0.0
1.0 -5.0 0.0
1.5 -5.0 0.0
2.0 -5.0 0.0
2.5 -5.0 0.0
3.0 -5.0 0.0
3.5 -5.0 0.0
4.0 -5.0 0.0
4.5 -5.0 0.0
5.0 -4.5 0.0
5.0 -4.0 0.0
5.0 -3.5 0.0
5.0 -3.0 0.0
5.0 -2.5 0.0
5.0 -2.0 0.0
5.0 -1.5 0.0
5.0 -1.0 0.0
5.0 -0.5 0.0
5.0 0.0 0.0
5.0 0.5 0.0
5.0 1.0 0.0
5.0 1.5 0.0
5.0 2.0 0.0
5.0 2.5 0.0
5.0 3.0 0.0
5.0 3.5 0.0
5.0 4.0 0.0
5.0 4.5 0.0
-2.5 -2.0 0.0
-2.5 -1.5 0.0
-2.5 -1.0 0.0
-2.5 -0.5 0.0
-2.5 0.0 0.0
-2.5 0.5 0.0
-2.5 1.0 0.0
-2.5 1.5 0.0
-2.5 2.0 0.0
-2.0 2.5 0.0
-1.5 2.5 0.0
-1.0 2.5 0.0
-0.5 2.5 0.0
0.0 2.5 0.0
0.5 2.5 0.0
1.0 2.5 0.0
1.5 2.5 0.0
2.0 2.5 0.0
2.5 2.0 0.0
2.5 1.5 0.0
2.5 1.0 0.0
2.5 0.5 0.0
2.5 0.0 0.0
2.5 -0.5 0.0
2.5 -1.0 0.0
2.5 -1.5 0.0
2.5 -2.0 0.0
2.0 -2.5 0.0
1.5 -2.5 0.0
1.0 -2.5 0.0
0.5 -2.5 0.0
0.0 -2.5 0.0
-0.5 -2.5 0.0
-1.0 -2.5 0.0
-1.5 -2.5 0.0
-2.0 -2.5 0.0
3.6138 -3.5465 0.0
3.564 3.629 0.0
-3.5419 -3.5376 0.0
-3.5376 3.5419 0.0
1.2147 -3.7498 0.0
-3.7498 -1.2147 0.0
2.2381 3.8165 0.0
3.698 -2.1886 0.0
-1.2092 3.8086 0.0
3.8086 1.2092 0.0
0.8132 3.7353 0.0
3.7353 -0.8132 0.0
-0.25 -3.75 0.0
-3.75 0.25 0.0
-1.8357 -3.8325 0.0
-3.7554 1.7719 0.0
2.3763 -3.8223 0.0
-3.8216 -2.3782 0.0
3.8223 2.3763 0.0
-2.3782 3.8216 0.0
-0.2445 3.9477 0.0
3.9477 0.2445 0.0
-2.69 -4.036 0.0
-4.0734 2.5767 0.0
4.1039 -4.1884 0.0
-4.1748 -4.1671 0.0
4.1882 4.1038 0.0
-4.1671 4.1748 0.0
-3.35 -0.5 0.0
0.5 -3.35 0.0
-4.1756 1.06 0.0
-1.06 -4.1756 0.0
1.4388 4.1727 0.0
4.1727 -1.4388 0.0
4.1772 -3.0122 0.0
3.0086 4.142 0.0
0.4976 -4.157 0.0
-4.157 -0.4976 0.0
1.5119 3.3377 0.0
3.3377 -1.5119 0.0
-0.9729 -3.3074 0.0
-3.3074 0.9729 0.0
-2.7913 -3.2557 0.0
-3.245 2.7817 0.0
3.0808 -4.2273 0.0
-4.2284 -3.0825 0.0
4.2273 3.0808 0.0
-3.0825 4.2284 0.0
3.314 0.5826 0.0
-0.5826 3.314 0.0
3.2043 -2.756 0.0
2.8214 3.2143 0.0
1.8838 -3.2771 0.0
-3.275 -1.8827 0.0
3.2771 1.8838 0.0
-1.8827 3.275 0.0
0.1518 3.2976 0.0
3.2976 -0.1518 0.0
1.794 -4.2736 0.0
-4.2736 -1.794 0.0
4.2937 1.7721 0.0
-1.7721 4.2937 0.0
-3.4406 -4.2771 0.0
-4.2771 3.4406 0.0
-3.183 -2.6609 0.0
-2.6609 3.183 0.0
-0.9918 4.1992 0.0
4.1992 0.9918 0.0
0.3562 4.2963 0.0
4.2963 -0.3562 0.0
2.6232 -3.1805 0.0
3.1805 2.6232 0.0
-2.1333 -3.1966 0.0
-3.1966 2.1333 0.0
-1.9873 -4.2993 0.0
-4.3127 2.0271 0.0
2.25 4.4 0.0
4.5559 -2.2424 0.0
-4.4 0.25 0.0
-0.25 -4.4 0.0
-0.2433 -3.0557 0.0
-3.0557 0.2433 0.0
1.2395 -2.9299 0.0
-2.9299 -1.2395 0.0
2.929 1.2474 0.0
-1.2474 2.929 0.0
0.7918 3.1084 0.0
3.1084 -0.7918 0.0
3.1122 -2.1889 0.0
2.1163 3.0118 0.0
1.1246 -4.4768 0.0
-4.4768 -1.1246 0.0
4.3803 -3.5405 0.0
3.5402 4.3788 0.0
-1.4644 -3.108 0.0
-3.108 1.4644 0.0
0.9742 4.4083 0.0
4.4083 -0.9742 0.0
2.5583 -4.4115 0.0
-4.4115 -2.5583 0.0
4.4115 2.5583 0.0
-2.5583 4.4115 0.0
2.9736 -3.7013 0.0
3.7013 2.9736 0.0
-1.5048 -4.4477 0.0
-4.4609 1.5082 0.0
3.594 -4.3762 0.0
-4.3756 -3.6018 0.0
4.3761 3.594 0.0
-3.6018 4.3756 0.0
-3.6907 -3.0159 0.0
-3.0159 3.6907 0.0
-2.2797 -3.6699 0.0
-3.6653 2.2629 0.0
-0.2516 4.6537 0.0
4.6537 0.2516 0.0
0.2616 3.8273 0.0
3.8273 -0.2616 0.0
-0.6753 3.7854 0.0
3.7854 0.6753 0.0
-2.801 -4.5969 0.0
-4.6031 2.7821 0.0
4.5691 1.3113 0.0
-1.3113 4.5691 0.0
1.8319 -3.7806 0.0
-3.7752 -1.812 0.0
3.7765 1.7825 0.0
-1.7832 3.7757 0.0
-3.0455 -3.6804 0.0
-3.6796 3.05 0.0
3.6868 -3.0215 0.0
2.7032 3.7073 0.0
-0.217 2.977 0.0
2.977 0.217 0.0
-3.7739 -4.5419 0.0
-4.5419 3.7739 0.0
4.5379 -4.4865 0.0
4.4865 4.5379 0.0
-4.5006 -4.5006 0.0
-4.5006 4.5006 0.0
-4.5536 -0.252 0.0
0.252 -4.5536 0.0
-3.6429 1.3249 0.0
-1.334 -3.6539 0.0
-3.7587 -0.2797 0.0
0.2797 -3.7587 0.0
3.7282 -1.2865 0.0
1.2865 3.7282 0.0
-4.5555 0.7318 0.0
-0.7318 -4.5555 0.0
1.7536 4.5527 0.0
4.562 -1.7707 0.0
-2.9551 -0.2677 0.0
0.2677 -2.9551 0.0
-2.9411 -2.278 0.0
-2.2589 2.9336 0.0
0.7488 -2.9349 0.0
-2.9349 -0.7488 0.0
2.9189 -1.2053 0.0
1.2053 2.9189 0.0
4.5631 -2.7253 0.0
2.7343 4.5432 0.0
-3.7459 -0.7204 0.0
0.7204 -3.7459 0.0
1.7196 3.7652 0.0
3.7467 -1.7277 0.0
-0.7534 -3.7445 0.0
-3.7438 0.7529 0.0
2.2606 -2.9345 0.0
2.9345 2.2606 0.0
-0.7073 -2.9364 0.0
-2.9364 0.7073 0.0
1.7094 2.9438 0.0
2.9606 -1.7215 0.0
3.7258 -3.9555 0.0
-3.9617 -3.7192 0.0
3.9516 3.735 0.0
-3.7192 3.9617 0.0
-4.5989 -0.7464 0.0
0.7464 -4.5989 0.0
3.5248 0.2177 0.0
-0.2177 3.5248 0.0
-3.2368 -3.0923 0.0
-3.0716 3.2286 0.0
3.4025 3.9523 0.0
4.6241 -3.1556 0.0
3.1566 4.6128 0.0
3.9805 -3.3782 0.0
2.1352 -4.5692 0.0
-4.5692 -2.1352 0.0
4.5919 2.1262 0.0
-2.1262 4.5919 0.0
2.9204 0.7546 0.0
-0.7546 2.9204 0.0
4.5564 -3.9734 0.0
3.9734 4.5564 0.0
3.1262 -3.2904 0.0
3.325 3.091 0.0
3.2199 -4.6446 0.0
-4.6447 -3.2212 0.0
4.6446 3.2199 0.0
-3.2212 4.6447 0.0
4.0589 -2.5352 0.0
-3.4238 -2.2737 0.0
-2.2657 3.4226 0.0
-2.3671 -2.9313 0.0
-2.9181 2.3934 0.0
1.3333 4.6267 0.0
4.6286 -1.3367 0.0
1.7395 -2.892 0.0
-2.8818 -1.7435 0.0
2.892 1.7402 0.0
-1.7428 2.8812 0.0
-1.1289 -2.8704 0.0
-2.8704 1.1289 0.0
4.0598 -4.5713 0.0
-4.5713 -4.0598 0.0
4.5713 4.0598 0.0
-4.0598 4.5713 0.0
2.266 -3.423 0.0
3.4223 2.2577 0.0
2.5868 4.1218 0.0
-3.3739 -0.1108 0.0
0.1108 -3.3739 0.0
0.4022 2.9194 0.0
2.9194 -0.4022 0.0
-3.252 -4.6359 0.0
-4.6364 3.2504 0.0
-4.125 0.6089 0.0
-0.6091 -4.1251 0.0
1.8913 4.1414 0.0
4.1381 -1.943 0.0
2.7866 -2.8116 0.0
2.7979 2.7954 0.0
-1.1593 -4.6358 0.0
-4.6384 1.16 0.0
3.5629 -2.5662 0.0
0.986 -3.3557 0.0
-3.3557 -0.986 0.0
0.1059 -4.1239 0.0
-4.1239 -0.1059 0.0
1.5243 -4.5872 0.0
-4.5872 -1.5243 0.0
3.3949 0.9928 0.0
-0.9928 3.3949 0.0
-0.5854 -3.3588 0.0
-3.3587 0.5853 0.0
-3.7292 -4.0368 0.0
-4.0368 3.7292 0.0
1.0549 3.3616 0.0
3.3616 -1.0549 0.0
1.4876 -3.3762 0.0
-3.3747 -1.4861 0.0
3.3684 1.4808 0.0
-1.4811 3.3668 0.0
3.1312 3.5682 0.0
4.6909 1.7419 0.0
-1.7419 4.6909 0.0
2.3741 3.3334 0.0
4.1294 1.4134 0.0
-1.4135 4.1293 0.0
2.1826 -4.1698 0.0
-4.1698 -2.1826 0.0
4.1698 2.1826 0.0
-2.1826 4.1698 0.0
-1.8672 -2.9165 0.0
-2.9149 1.8703 0.0
0.5559 3.3939 0.0
3.3939 -0.5559 0.0
2.716 -4.0376 0.0
-4.0373 -2.7185 0.0
4.0376 2.716 0.0
-2.7185 4.0373 0.0
-2.3057 -4.5174 0.0
-4.6207 2.3395 0.0
3.3387 -3.8528 0.0
3.8585 3.3374 0.0
-3.9015 -3.3436 0.0
-3.3436 3.9015 0.0
4.6218 -0.6241 0.0
0.6241 4.6218 0.0
1.4004 -4.1613 0.0
-4.1604 -1.3971 0.0
-1.8399 -4.6401 0.0
-4.6542 1.8527 0.0
4.6146 0.7593 0.0
-0.7593 4.6146 0.0
3.7687 4.0435 0.0
4.0444 -3.7702 0.0
4.6396 -0.2049 0.0
0.2049 4.6396 0.0
-2.6666 -3.6121 0.0
-3.6024 2.635 0.0
-3.1006 -4.1848 0.0
-4.1921 3.079 0.0
3.371 -1.8677 0.0
1.9387 3.3756 0.0
-1.5014 -4.0463 0.0
-4.047 1.5842 0.0
-2.8365 -2.7864 0.0
-2.7433 2.8139 0.0
2.8718 -4.6567 0.0
-4.6569 -2.8724 0.0
4.6567 2.8718 0.0
-2.8724 4.6569 0.0
-3.3744 -3.8828 0.0
-3.8828 3.3744 0.0
0.6904 4.1274 0.0
4.1274 -0.6904 0.0
-1.8191 -3.3962 0.0
-3.3805 1.8046 0.0
-4.1246 -0.9319 0.0
0.9322 -4.1247 0.0
4.0344 -1.0406 0.0
1.0406 4.0344 0.0
-4.1682 -4.668 0.0
-4.668 4.1682 0.0
-2.2697 -4.0605 0.0
-3.9663 2.0482 0.0
4.2656 0.5009 0.0
-0.5009 4.2656 0.0
4.27 0.0205 0.0
-0.0205 4.27 0.0
-3.5563 -2.6607 0.0
-2.6582 3.5555 0.0
-2.4402 -3.3294 0.0
-3.3294 2.4402 0.0
2.6419 -3.5548 0.0
3.5625 2.647 0.0
2.8307 -2.4488 0.0
2.4425 2.8559 0.0
0.75 2.7542 0.0
2.7542 -0.75 0.0
5.0 15.0 0.0
-5.0 15.0 0.0
-2.5 7.5 0.0
-2.5 12.5 0.0
2.5 12.5 0.0
2.5 7.5 0.0
4.5 15.0 0.0
4.0 15.0 0.0
3.5 15.0 0.0
3.0 15.0 0.0
2.5 15.0 0.0
2.0 15.0 0.0
1.5 15.0 0.0
1.0 15.0 0.0
0.5 15.0 0.0
0.0 15.0 0.0
-0.5 15.0 0.0
-1.0 15.0 0.0
-1.5 15.0 0.0
-2.0 15.0 0.0
-2.5 15.0 0.0
-3.0 15.0 0.0
-3.5 15.0 0.0
-4.0 15.0 0.0
-4.5 15.0 0.0
-5.0 14.5 0.0
-5.0 14.0 0.0
-5.0 13.5 0.0
-5.0 13.0 0.0
-5.0 12.5 0.0
-5.0 12.0 0.0
-5.0 11.5 0.0
-5.0 11.0 0.0
-5.0 10.5 0.0
-5.0 10.0 0.0
-5.0 9.5 0.0
-5.0 9.0 0.0
-5.0 8.5 0.0
-5.0 8.0 0.0
-5.0 7.5 0.0
-5.0 7.0 0.0
-5.0 6.5 0.0
-5.0 6.0 0.0
-5.0 5.5 0.0
5.0 5.5 0.0
5.0 6.0 0.0
5.0 6.5 0.0
5.0 7.0 0.0
5.0 7.5 0.0
5.0 8.0 0.0
5.0 8.5 0.0
5.0 9.0 0.0
5.0 9.5 0.0
5.0 10.0 0.0
5.0 10.5 0.0
5.0 11.0 0.0
5.0 11.5 0.0
5.0 12.0 0.0
5.0 12.5 0.0
5.0 13.0 0.0
5.0 13.5 0.0
5.0 14.0 0.0
5.0 14.5 0.0
-2.5 8.0 0.0
-2.5 8.5 0.0
-2.5 9.0 0.0
-2.5 9.5 0.0
-2.5 10.0 0.0
-2.5 10.5 0.0
-2.5 11.0 0.0
-2.5 11.5 0.0
-2.5 12.0 0.0
-2.0 12.5 0.0
-1.5 12.5 0.0
-1.0 12.5 0.0
-0.5 12.5 0.0
0.0 12.5 0.0
0.5 12.5 0.0
1.0 12.5 0.0
1.5 12.5 0.0
2.0 12.5 0.0
2.5 12.0 0.0
2.5 11.5 0.0
2.5 11.0 0.0
2.5 10.5 0.0
2.5 10.0 0.0
2.5 9.5 0.0
2.5 9.0 0.0
2.5 8.5 0.0
2.5 8.0 0.0
2.0 7.5 0.0
1.5 7.5 0.0
1.0 7.5 0.0
0.5 7.5 0.0
0.0 7.5 0.0
-0.5 7.5 0.0
-1.0 7.5 0.0
-1.5 7.5 0.0
-2.0 7.5 0.0
3.6138 6.4535 0.0
3.564 13.629 0.0
-3.5419 6.4624 0.0
-3.5376 13.5419 0.0
1.2147 6.2502 0.0
-3.7498 8.7853 0.0
2.2381 13.8165 0.0
3.698 7.8114 0.0
-1.2092 13.8086 0.0
3.8086 11.2092 0.0
0.8132 13.7353 0.0
3.7353 9.1868 0.0
-0.25 6.25 0.0
-3.75 10.25 0.0
-1.8357 6.1675 0.0
-3.7554 11.7719 0.0
2.3763 6.1777 0.0
-3.8216 7.6218 0.0
3.8223 12.3763 0.0
-2.3782 13.8216 0.0
-0.2445 13.9477 0.0
3.9477 10.2445 0.0
-2.69 5.964 0.0
-4.0734 12.5767 0.0
4.1039 5.8116 0.0
-4.1748 5.8329 0.0
4.1882 14.1038 0.0
-4.1671 14.1748 0.0
-3.35 9.5 0.0
0.5 6.65 0.0
-4.1756 11.06 0.0
-1.06 5.8244 0.0
1.4388 14.1727 0.0
4.1727 8.5612 0.0
4.1772 6.9878 0.0
3.0086 14.142 0.0
0.4976 5.843 0.0
-4.157 9.5024 0.0
1.5119 13.3377 0.0
3.3377 8.4881 0.0
-0.9729 6.6926 0.0
-3.3074 10.9729 0.0
-2.7913 6.7443 0.0
-3.245 12.7817 0.0
3.0808 5.7727 0.0
[...]
POINT_DATA 1729
SCALARS Fourier_Temperature_[K] double 1
LOOKUP_TABLE default
-0.478663239829
0.479259060691
0.479033690352
-0.480299735837
0.335986530008
0.329121209372
-0.336782462516
-0.328660251591
-0.457523934502
-0.424106356984
-0.373479152929
-0.321599331803
-0.274114152522
-0.222324075933
-0.170305352868
-0.111369956603
-0.0521789175672
0.00124227239718
0.0568591611614
0.114451558015
0.16942637371
0.219106845307
0.275399213806
0.326091473455
0.376829809019
0.417233363659
0.449978346581
0.485021748177
0.486529123116
0.486930588193
0.489196559631
0.490503619317
0.492584895975
0.491972346436
0.494251811189
0.493242975524
0.493502743373
0.494578828633
0.492466838152
0.494613850485
0.491155441364
0.487060204335
0.489949351997
0.482702975855
0.488969757664
0.48320532849
0.452076820239
0.414589145015
0.371694755268
0.325171586663
0.276740405116
0.225642372938
0.168190590314
0.109971837014
0.0561834007585
-2.05663863492e-05
-0.0565613027203
-0.120204860358
-0.169247433286
-0.214166488711
-0.275547502181
-0.326030718956
-0.376555996387
-0.41719908915
-0.450713865994
-0.48745409275
-0.483811580951
-0.481825808195
-0.48765442442
-0.488346953571
-0.49003210407
-0.492207237324
-0.491844652933
-0.49444847628
-0.494863995581
-0.494480473788
-0.493150471678
-0.492716435635
-0.491592030646
-0.486437773364
-0.489096519103
-0.481986858702
-0.488292197125
-0.482457648091
0.401708506254
0.427043644182
0.441695929763
0.449534870982
0.452140383031
0.449723690998
0.442381209805
0.427140743458
0.397650184881
0.240376526095
0.177085852918
0.117364258796
0.0576684389459
-0.00482932365533
-0.0623750010694
-0.116051161624
-0.174944897824
-0.246084651322
-0.400883833132
-0.426004332672
-0.440643529503
-0.448670325163
-0.451090079128
-0.448193203556
-0.440697977543
-0.426418575031
-0.397660714155
-0.240643992053
-0.176873306014
-0.116977045367
-0.058768362772
-0.000537901947073
0.0572095135627
0.112861037823
0.17647563394
0.24724188184
-0.394327266522
-0.387241891653
0.387967447223
0.385872490558
-0.140309171652
0.456954584101
-0.251499034615
-0.431724163162
0.139756039226
-0.456996950697
-0.093418059898
-0.461177975534
0.0283272419088
0.466178313704
0.211313890797
0.445299716427
-0.265513428405
0.433991404309
-0.433483171375
0.26512342104
0.0269867593513
-0.469717373964
0.295131795848
0.445709662616
-0.42572032457
0.432143965732
-0.434084143852
0.431925993622
0.456944423777
-0.0592377472276
0.471884482208
0.122387085738
-0.162065559058
-0.46720383287
-0.445275236661
-0.33087954184
-0.0572953535043
0.475210201349
-0.173472951815
-0.438753689728
0.114665008901
0.449641935927
0.322363292616
0.383208679331
-0.332489505728
0.44827822553
-0.447263161077
0.332962586049
-0.454869689928
0.0666771708007
-0.381193007368
-0.326084068923
-0.222701549048
0.423868492813
-0.423282770586
0.22176838129
-0.0179373817713
-0.45742856732
-0.203636147915
0.466724775282
-0.468651850413
0.198509083401
0.368814816772
0.445836460986
0.386317062107
0.307457016716
0.111742366664
-0.47247757143
-0.0401047281821
-0.478794612318
-0.307106102941
-0.386862885591
0.251685546031
0.412141461304
0.2147236594
0.4666432876
-0.249573438816
-0.475822289991
0.48366532838
0.0283037034966
0.0279809770079
0.454685962735
-0.145634745908
0.438241053795
-0.437243127763
0.146060791782
-0.0922594263834
-0.448566091358
-0.404743276426
-0.24914917035
-0.126897395328
0.482088464523
-0.45443279685
-0.372091748441
0.169176575005
0.43528905264
-0.113677137541
-0.479789142233
-0.283555854673
0.466399859169
-0.46571110511
0.283470163089
-0.331238764188
-0.415661391257
0.169648934737
0.478670006919
-0.380330350503
0.452021419671
-0.451016762697
0.381168849875
0.41161227376
0.338771232993
0.25932087522
0.428665582747
0.0294115077873
-0.48877324969
-0.0298577613512
-0.466948492228
0.077691528295
-0.463496265675
0.306017781438
0.474618296912
-0.482785376068
0.147755491885
-0.208900172771
0.44584117925
-0.445377491182
0.206875463064
0.340152611871
0.407119719496
-0.408034278248
-0.303976580205
0.0250501877706
-0.453040622551
0.39553385942
0.464843230536
-0.465558358215
-0.455755021963
0.462678108545
0.462394339819
0.487046225321
-0.0296421422093
0.451641829084
0.154264117631
0.466164736706
-0.0320417474842
-0.454529227108
-0.145689875871
0.486168128403
0.0852393811498
-0.195019910953
-0.480638603866
0.453433673312
-0.0311708827474
0.392332815441
0.270503244274
-0.0873296043144
0.448499950837
-0.438417388981
-0.139735433888
-0.472648734819
-0.30012242433
0.463126230711
-0.0838140389412
-0.196450261163
-0.44606330466
0.0902242460203
0.462240005756
-0.271018676912
-0.391560156272
0.0849598389661
0.448815354679
-0.201850914452
-0.421662564869
-0.397141595843
0.418133177926
-0.417427416961
0.397125345853
0.486539638505
-0.0824130726711
-0.460777439579
0.0251536003905
0.371487510436
0.352487010225
-0.367910838773
-0.4735667518
-0.339746254393
-0.42433405401
-0.234348277165
0.478451193966
-0.478574667207
0.23630826233
-0.44741721152
0.088231675342
-0.462394049929
-0.410379669392
-0.353942619571
-0.378510129181
-0.345048701444
0.47569631813
-0.474852011204
0.345233526052
-0.443724158629
0.415606688467
0.262806976038
0.284219604684
0.384835856365
-0.150034440721
-0.485285609594
-0.204921123548
0.420749684877
-0.419906523476
0.204922134776
0.132167359324
0.440433504079
-0.41984298645
0.471664465919
-0.470947036319
0.420193976683
-0.262847671582
-0.415385279625
-0.287211549811
0.459321685859
-0.0126272987466
-0.0437081115504
-0.451558660616
0.349970443768
0.472997526871
0.473947887316
0.0694581453641
-0.212297643814
-0.45786650322
-0.337864300127
-0.349504643939
0.130705350186
0.487355780107
-0.412816432629
-0.114248962384
0.450887644679
-0.0119450349622
0.475499709118
-0.174278570836
0.484534420675
-0.450222474531
0.115037920718
0.0677906079161
0.456402358998
0.395336480186
0.424296474988
-0.119997662166
-0.449360645013
-0.172529936216
0.439819012696
-0.439255590139
0.171791616916
-0.348979116098
-0.485624264175
0.194852635623
-0.276314294437
-0.465686779824
0.160449894755
-0.248470907775
0.455662676832
-0.455193626688
0.247568743055
0.22227923626
0.414627213974
-0.0660558505941
-0.455950544815
-0.296414564125
0.438300017253
-0.437774093791
0.297166887936
0.254824200831
0.479309807422
-0.364398341511
-0.415243653558
0.42184522292
0.365819804123
-0.486785088812
-0.0703151214339
-0.159150763407
0.468037466692
0.206791630088
0.485107315257
-0.487001190785
0.0859267099238
-0.399076121459
-0.425734779994
-0.488844933617
-0.0228869508976
0.301504388656
0.414024527991
0.337448240705
0.444696252543
-0.42782472437
-0.225658655473
0.173795560968
0.460951528088
0.348313086882
0.338160741902
-0.312262895496
0.478048470085
-0.477186261509
0.312296438603
0.365791939774
0.420664877825
-0.0776222189451
-0.473182505499
0.211186144538
0.431231576963
0.4719859525
-0.107567548463
-0.466958142586
-0.118460786407
0.431924733597
0.47205626925
0.250981816266
0.449660406858
-0.477048604342
0.0562632689138
-0.478538561734
0.00305835585712
0.409677369653
0.304637348106
0.284325439905
0.403933490719
-0.303542119632
-0.410370795947
-0.373584619746
-0.294227649401
-0.0899763772035
-0.445874583162
-0.478663239829
0.479259060691
0.335986530008
0.329121209372
-0.336782462516
-0.328660251591
-0.457523934502
-0.424106356984
-0.373479152929
-0.321599331803
-0.274114152522
-0.222324075933
-0.170305352868
-0.111369956603
-0.0521789175672
0.00124227239718
0.0568591611614
0.114451558015
0.16942637371
0.219106845307
0.275399213806
0.326091473455
0.376829809019
0.417233363659
0.449978346581
0.485021748177
0.486529123116
0.486930588193
0.489196559631
0.490503619317
0.492584895975
0.491972346436
0.494251811189
0.493242975524
0.493502743373
0.494578828633
0.492466838152
0.494613850485
0.491155441364
0.487060204335
0.489949351997
0.482702975855
0.488969757664
0.48320532849
-0.48745409275
-0.483811580951
-0.481825808195
-0.48765442442
-0.488346953571
-0.49003210407
-0.492207237324
-0.491844652933
-0.49444847628
-0.494863995581
-0.494480473788
-0.493150471678
-0.492716435635
-0.491592030646
-0.486437773364
-0.489096519103
-0.481986858702
-0.488292197125
-0.482457648091
0.401708506254
0.427043644182
0.441695929763
0.449534870982
0.452140383031
0.449723690998
0.442381209805
0.427140743458
0.397650184881
0.240376526095
0.177085852918
0.117364258796
0.0576684389459
-0.00482932365533
-0.0623750010694
-0.116051161624
-0.174944897824
-0.246084651322
-0.400883833132
-0.426004332672
-0.440643529503
-0.448670325163
-0.451090079128
-0.448193203556
-0.440697977543
-0.426418575031
-0.397660714155
-0.240643992053
-0.176873306014
-0.116977045367
-0.058768362772
-0.000537901947073
0.0572095135627
0.112861037823
0.17647563394
0.24724188184
-0.394327266522
-0.387241891653
0.387967447223
0.385872490558
-0.140309171652
0.456954584101
-0.251499034615
-0.431724163162
0.139756039226
-0.456996950697
-0.093418059898
-0.461177975534
0.0283272419088
0.466178313704
0.211313890797
0.445299716427
-0.265513428405
0.433991404309
-0.433483171375
0.26512342104
0.0269867593513
-0.469717373964
0.295131795848
0.445709662616
-0.42572032457
0.432143965732
-0.434084143852
0.431925993622
0.456944423777
-0.0592377472276
0.471884482208
0.122387085738
-0.162065559058
-0.46720383287
-0.445275236661
-0.33087954184
-0.0572953535043
0.475210201349
-0.173472951815
-0.438753689728
0.114665008901
0.449641935927
0.322363292616
0.383208679331
-0.332489505728
0.44827822553
-0.447263161077
0.332962586049
-0.454869689928
0.0666771708007
-0.381193007368
-0.326084068923
-0.222701549048
0.423868492813
-0.423282770586
0.22176838129
-0.0179373817713
-0.45742856732
-0.203636147915
0.466724775282
-0.468651850413
0.198509083401
0.368814816772
0.445836460986
0.386317062107
0.307457016716
0.111742366664
-0.47247757143
-0.0401047281821
-0.478794612318
-0.307106102941
-0.386862885591
0.251685546031
0.412141461304
0.2147236594
0.4666432876
-0.249573438816
-0.475822289991
0.48366532838
0.0283037034966
0.0279809770079
0.454685962735
-0.145634745908
0.438241053795
-0.437243127763
0.146060791782
-0.0922594263834
-0.448566091358
-0.404743276426
-0.24914917035
-0.126897395328
0.482088464523
-0.45443279685
-0.372091748441
0.169176575005
0.43528905264
-0.113677137541
-0.479789142233
-0.283555854673
0.466399859169
-0.46571110511
0.283470163089
-0.331238764188
-0.415661391257
0.169648934737
0.478670006919
-0.380330350503
0.452021419671
-0.451016762697
0.381168849875
0.41161227376
0.338771232993
0.25932087522
0.428665582747
0.0294115077873
-0.48877324969
-0.0298577613512
-0.466948492228
0.077691528295
-0.463496265675
0.306017781438
0.474618296912
-0.482785376068
0.147755491885
-0.208900172771
0.44584117925
-0.445377491182
0.206875463064
0.340152611871
0.407119719496
-0.408034278248
-0.303976580205
0.0250501877706
-0.453040622551
0.39553385942
0.464843230536
-0.465558358215
-0.455755021963
0.462678108545
0.462394339819
0.487046225321
-0.0296421422093
0.451641829084
0.154264117631
0.466164736706
-0.0320417474842
-0.454529227108
-0.145689875871
0.486168128403
0.0852393811498
-0.195019910953
-0.480638603866
0.453433673312
-0.0311708827474
0.392332815441
0.270503244274
-0.0873296043144
0.448499950837
-0.438417388981
-0.139735433888
-0.472648734819
-0.30012242433
0.463126230711
-0.0838140389412
-0.196450261163
-0.44606330466
0.0902242460203
0.462240005756
-0.271018676912
-0.391560156272
0.0849598389661
0.448815354679
-0.201850914452
-0.421662564869
-0.397141595843
0.418133177926
-0.417427416961
0.397125345853
0.486539638505
-0.0824130726711
-0.460777439579
0.0251536003905
0.371487510436
0.352487010225
-0.367910838773
-0.4735667518
-0.339746254393
-0.42433405401
-0.234348277165
0.478451193966
-0.478574667207
0.23630826233
-0.44741721152
0.088231675342
-0.462394049929
-0.410379669392
-0.353942619571
-0.378510129181
-0.345048701444
0.47569631813
-0.474852011204
0.345233526052
-0.443724158629
0.415606688467
0.262806976038
0.284219604684
0.384835856365
-0.150034440721
-0.485285609594
-0.204921123548
0.420749684877
-0.419906523476
0.204922134776
0.132167359324
0.440433504079
-0.41984298645
0.471664465919
-0.470947036319
0.420193976683
-0.262847671582
-0.415385279625
-0.287211549811
0.459321685859
-0.0126272987466
-0.0437081115504
-0.451558660616
0.349970443768
0.472997526871
0.473947887316
0.0694581453641
-0.212297643814
-0.45786650322
-0.337864300127
-0.349504643939
0.130705350186
0.487355780107
-0.412816432629
-0.114248962384
0.450887644679
-0.0119450349622
0.475499709118
-0.174278570836
0.484534420675
-0.450222474531
0.115037920718
0.0677906079161
0.456402358998
0.395336480186
0.424296474988
-0.119997662166
-0.449360645013
-0.172529936216
0.439819012696
-0.439255590139
0.171791616916
-0.348979116098
-0.485624264175
0.194852635623
-0.276314294437
-0.465686779824
0.160449894755
-0.248470907775
0.455662676832
-0.455193626688
0.247568743055
0.22227923626
0.414627213974
-0.0660558505941
-0.455950544815
-0.296414564125
0.438300017253
-0.437774093791
0.297166887936
0.254824200831
0.479309807422
-0.364398341511
-0.415243653558
0.42184522292
0.365819804123
-0.486785088812
-0.0703151214339
-0.159150763407
0.468037466692
0.206791630088
0.485107315257
-0.487001190785
0.0859267099238
-0.399076121459
-0.425734779994
-0.488844933617
-0.0228869508976
0.301504388656
0.414024527991
0.337448240705
0.444696252543
-0.42782472437
-0.225658655473
0.173795560968
0.460951528088
0.348313086882
0.338160741902
-0.312262895496
0.478048470085
-0.477186261509
0.312296438603
0.365791939774
0.420664877825
-0.0776222189451
-0.473182505499
0.211186144538
0.431231576963
0.4719859525
-0.107567548463
-0.466958142586
-0.118460786407
0.431924733597
0.47205626925
0.250981816266
0.449660406858
-0.477048604342
0.0562632689138
-0.478538561734
0.00305835585712
0.409677369653
0.304637348106
0.284325439905
0.403933490719
-0.303542119632
-0.410370795947
-0.373584619746
-0.294227649401
-0.0899763772035
-0.445874583162
-0.478663239829
-0.480299735837
0.335986530008
0.329121209372
-0.336782462516
-0.328660251591
-0.457523934502
-0.424106356984
-0.373479152929
-0.321599331803
-0.274114152522
-0.222324075933
-0.170305352868
-0.111369956603
-0.0521789175672
0.00124227239718
0.0568591611614
0.114451558015
0.16942637371
0.219106845307
0.275399213806
0.326091473455
0.376829809019
0.417233363659
0.449978346581
0.452076820239
0.414589145015
0.371694755268
0.325171586663
0.276740405116
0.225642372938
0.168190590314
0.109971837014
0.0561834007585
-2.05663863492e-05
-0.0565613027203
-0.120204860358
-0.169247433286
-0.214166488711
-0.275547502181
-0.326030718956
-0.376555996387
-0.41719908915
-0.450713865994
-0.48745409275
-0.483811580951
-0.481825808195
-0.48765442442
-0.488346953571
-0.49003210407
-0.492207237324
-0.491844652933
-0.49444847628
-0.494863995581
-0.494480473788
-0.493150471678
-0.492716435635
-0.491592030646
-0.486437773364
-0.489096519103
-0.481986858702
-0.488292197125
-0.482457648091
0.401708506254
0.427043644182
0.441695929763
0.449534870982
0.452140383031
0.449723690998
0.442381209805
0.427140743458
0.397650184881
0.240376526095
0.177085852918
0.117364258796
0.0576684389459
-0.00482932365533
-0.0623750010694
-0.116051161624
-0.174944897824
-0.246084651322
-0.400883833132
-0.426004332672
-0.440643529503
-0.448670325163
-0.451090079128
-0.448193203556
-0.440697977543
-0.426418575031
-0.397660714155
-0.240643992053
-0.176873306014
-0.116977045367
-0.058768362772
-0.000537901947073
0.0572095135627
0.112861037823
0.17647563394
0.24724188184
-0.394327266522
-0.387241891653
0.387967447223
0.385872490558
-0.140309171652
0.456954584101
-0.251499034615
-0.431724163162
0.139756039226
-0.456996950697
-0.093418059898
-0.461177975534
0.0283272419088
0.466178313704
0.211313890797
0.445299716427
-0.265513428405
0.433991404309
-0.433483171375
0.26512342104
0.0269867593513
-0.469717373964
0.295131795848
0.445709662616
-0.42572032457
0.432143965732
-0.434084143852
0.431925993622
0.456944423777
-0.0592377472276
0.471884482208
0.122387085738
-0.162065559058
-0.46720383287
-0.445275236661
-0.33087954184
-0.0572953535043
0.475210201349
-0.173472951815
-0.438753689728
0.114665008901
0.449641935927
0.322363292616
0.383208679331
-0.332489505728
0.44827822553
-0.447263161077
0.332962586049
-0.454869689928
0.0666771708007
-0.381193007368
-0.326084068923
-0.222701549048
0.423868492813
-0.423282770586
0.22176838129
-0.0179373817713
-0.45742856732
-0.203636147915
0.466724775282
-0.468651850413
0.198509083401
0.368814816772
0.445836460986
0.386317062107
0.307457016716
0.111742366664
-0.47247757143
-0.0401047281821
-0.478794612318
-0.307106102941
-0.386862885591
0.251685546031
0.412141461304
0.2147236594
0.4666432876
-0.249573438816
-0.475822289991
0.48366532838
0.0283037034966
0.0279809770079
0.454685962735
-0.145634745908
0.438241053795
-0.437243127763
0.146060791782
-0.0922594263834
-0.448566091358
-0.404743276426
-0.24914917035
-0.126897395328
0.482088464523
-0.45443279685
-0.372091748441
0.169176575005
0.43528905264
-0.113677137541
-0.479789142233
-0.283555854673
0.466399859169
-0.46571110511
0.283470163089
-0.331238764188
-0.415661391257
0.169648934737
0.478670006919
-0.380330350503
0.452021419671
-0.451016762697
0.381168849875
0.41161227376
0.338771232993
0.25932087522
0.428665582747
0.0294115077873
-0.48877324969
-0.0298577613512
-0.466948492228
0.077691528295
-0.463496265675
0.306017781438
0.474618296912
-0.482785376068
0.147755491885
-0.208900172771
0.44584117925
-0.445377491182
0.206875463064
0.340152611871
0.407119719496
-0.408034278248
-0.303976580205
0.0250501877706
-0.453040622551
0.39553385942
0.464843230536
-0.465558358215
-0.455755021963
0.462678108545
0.462394339819
0.487046225321
-0.0296421422093
0.451641829084
0.154264117631
0.466164736706
-0.0320417474842
-0.454529227108
-0.145689875871
0.486168128403
0.0852393811498
-0.195019910953
-0.480638603866
0.453433673312
-0.0311708827474
0.392332815441
0.270503244274
-0.0873296043144
0.448499950837
-0.438417388981
-0.139735433888
-0.472648734819
-0.30012242433
0.463126230711
-0.0838140389412
-0.196450261163
-0.44606330466
0.0902242460203
0.462240005756
-0.271018676912
-0.391560156272
0.0849598389661
0.448815354679
-0.201850914452
-0.421662564869
-0.397141595843
0.418133177926
-0.417427416961
0.397125345853
0.486539638505
-0.0824130726711
-0.460777439579
0.0251536003905
0.371487510436
0.352487010225
-0.367910838773
-0.4735667518
-0.339746254393
-0.42433405401
-0.234348277165
0.478451193966
-0.478574667207
0.23630826233
-0.44741721152
0.088231675342
-0.462394049929
-0.410379669392
-0.353942619571
-0.378510129181
-0.345048701444
0.47569631813
-0.474852011204
0.345233526052
-0.443724158629
0.415606688467
0.262806976038
0.284219604684
0.384835856365
-0.150034440721
-0.485285609594
-0.204921123548
0.420749684877
-0.419906523476
0.204922134776
0.132167359324
0.440433504079
-0.41984298645
0.471664465919
-0.470947036319
0.420193976683
-0.262847671582
-0.415385279625
-0.287211549811
0.459321685859
-0.0126272987466
-0.0437081115504
-0.451558660616
0.349970443768
0.472997526871
0.473947887316
0.0694581453641
-0.212297643814
-0.45786650322
-0.337864300127
-0.349504643939
0.130705350186
0.487355780107
-0.412816432629
-0.114248962384
0.450887644679
-0.0119450349622
0.475499709118
-0.174278570836
0.484534420675
-0.450222474531
0.115037920718
0.0677906079161
0.456402358998
0.395336480186
0.424296474988
-0.119997662166
-0.449360645013
-0.172529936216
0.439819012696
-0.439255590139
0.171791616916
-0.348979116098
-0.485624264175
0.194852635623
-0.276314294437
-0.465686779824
0.160449894755
-0.248470907775
0.455662676832
-0.455193626688
0.247568743055
0.22227923626
0.414627213974
-0.0660558505941
-0.455950544815
-0.296414564125
0.438300017253
-0.437774093791
0.297166887936
0.254824200831
0.479309807422
-0.364398341511
-0.415243653558
0.42184522292
0.365819804123
-0.486785088812
-0.0703151214339
-0.159150763407
0.468037466692
0.206791630088
0.485107315257
-0.487001190785
0.0859267099238
-0.399076121459
-0.425734779994
-0.488844933617
-0.0228869508976
0.301504388656
0.414024527991
0.337448240705
0.444696252543
-0.42782472437
-0.225658655473
0.173795560968
0.460951528088