# vtk DataFile Version 2.0
Really cool data
ASCII
DATASET UNSTRUCTURED_GRID
POINTS 127 float
5.0 5.0 0.0
-5.0 5.0 0.0
-5.0 -5.0 0.0
5.0 -5.0 0.0
-2.5 -2.5 0.0
-2.5 2.5 0.0
2.5 2.5 0.0
2.5 -2.5 0.0
4.0 5.0 0.0
3.0 5.0 0.0
2.0 5.0 0.0
1.0 5.0 0.0
0.0 5.0 0.0
-1.0 5.0 0.0
-2.0 5.0 0.0
-3.0 5.0 0.0
-4.0 5.0 0.0
-5.0 4.0 0.0
-5.0 3.0 0.0
-5.0 2.0 0.0
-5.0 1.0 0.0
-5.0 0.0 0.0
-5.0 -1.0 0.0
-5.0 -2.0 0.0
-5.0 -3.0 0.0
-5.0 -4.0 0.0
-4.0 -5.0 0.0
-3.0 -5.0 0.0
-2.0 -5.0 0.0
-1.0 -5.0 0.0
0.0 -5.0 0.0
1.0 -5.0 0.0
2.0 -5.0 0.0
3.0 -5.0 0.0
4.0 -5.0 0.0
5.0 -4.0 0.0
5.0 -3.0 0.0
5.0 -2.0 0.0
5.0 -1.0 0.0
5.0 0.0 0.0
5.0 1.0 0.0
5.0 2.0 0.0
5.0 3.0 0.0
5.0 4.0 0.0
-2.5 -1.5 0.0
-2.5 -0.5 0.0
-2.5 0.5 0.0
-2.5 1.5 0.0
-1.5 2.5 0.0
-0.5 2.5 0.0
0.5 2.5 0.0
1.5 2.5 0.0
2.5 1.5 0.0
2.5 0.5 0.0
2.5 -0.5 0.0
2.5 -1.5 0.0
1.5 -2.5 0.0
0.5 -2.5 0.0
-0.5 -2.5 0.0
-1.5 -2.5 0.0
3.5627 -3.6018 0.0
3.5022 3.6735 0.0
-3.4895 -3.706 0.0
-3.5625 3.5625 0.0
-3.8 -1.5 0.0
1.5 -3.8 0.0
1.5828 3.7531 0.0
3.7531 -1.5828 0.0
-1.0 3.7 0.0
3.7 1.0 0.0
-3.4685 0.0001 0.0
-0.0001 -3.4685 0.0
-1.996 -3.6529 0.0
-3.6529 1.996 0.0
3.9814 2.2345 0.0
-2.3021 3.7604 0.0
0.1992 4.0047 0.0
4.0047 -0.1992 0.0
2.6471 -4.0209 0.0
-4.1253 -2.4849 0.0
3.9828 -2.661 0.0
2.6563 3.9887 0.0
-0.9779 -3.4362 0.0
-3.4362 0.9779 0.0
-2.7919 -4.1789 0.0
-4.155 2.8041 0.0
-4.1553 -0.4629 0.0
0.4629 -4.1553 0.0
-3.2848 -0.7926 0.0
0.7926 -3.2848 0.0
-4.287 1.2958 0.0
-1.2958 -4.287 0.0
4.1646 -4.1646 0.0
-4.1646 -4.1646 0.0
4.1646 4.1646 0.0
-4.1646 4.1646 0.0
2.2122 -3.1939 0.0
-3.2563 -2.1681 0.0
3.1695 -2.2429 0.0
2.2225 3.1929 0.0
4.2404 1.564 0.0
-1.567 4.2308 0.0
0.7165 3.3775 0.0
3.3775 -0.7165 0.0
4.2509 0.4845 0.0
-0.4847 4.2503 0.0
-2.8267 -3.3787 0.0
-3.2756 2.7869 0.0
4.1763 3.0131 0.0
-3.0131 4.1763 0.0
-0.4789 -4.2593 0.0
-4.2593 0.4789 0.0
3.2759 1.6721 0.0
-1.6721 3.2759 0.0
3.2023 2.8602 0.0
-0.0948 3.3888 0.0
3.3889 0.0948 0.0
3.3995 -4.3275 0.0
4.3379 -3.4609 0.0
3.4646 4.3654 0.0
-4.257 -3.3837 0.0
4.2396 -0.865 0.0
0.865 4.2396 0.0
3.0124 -3.0367 0.0
-3.4892 -4.4099 0.0
-4.3764 3.5062 0.0
-3.3699 -2.8768 0.0
CELLS 194 776
3 52 53 112
3 48 49 113
3 53 69 112
3 49 68 113
3 31 32 65
3 22 23 64
3 45 46 70
3 57 58 71
3 4 59 72
3 5 47 73
3 49 68 115
3 53 69 116
3 5 75 107
3 63 75 107
3 37 67 121
3 10 66 122
3 37 38 121
3 10 11 122
3 32 65 78
3 23 64 79
3 37 67 80
3 10 66 81
3 41 74 108
3 14 75 109
3 28 72 84
3 19 73 85
3 46 70 83
3 58 71 82
3 47 73 83
3 59 72 82
3 81 99 114
3 4 72 106
3 5 73 107
3 43 94 108
3 16 95 109
3 44 64 88
3 56 65 89
3 31 65 87
3 22 64 86
3 45 70 88
3 57 71 89
3 61 81 114
3 41 42 108
3 14 15 109
3 28 72 91
3 19 73 90
3 63 75 109
3 51 66 102
3 55 67 103
3 55 67 98
3 51 66 99
3 56 65 96
3 44 64 97
3 41 74 100
3 14 75 101
3 5 75 113
3 42 43 108
3 15 16 109
3 39 77 121
3 12 76 122
3 50 102 115
3 54 103 116
3 12 76 105
3 39 77 104
3 21 86 111
3 30 87 110
3 80 98 123
3 76 102 115
3 77 103 116
3 32 33 78
3 23 24 79
3 36 37 80
3 9 10 81
3 60 80 123
3 27 28 84
3 18 19 85
3 70 86 111
3 71 87 110
3 40 100 104
3 13 101 105
3 6 112 114
3 69 100 104
3 68 101 105
3 3 34 92
3 3 35 92
3 2 25 93
3 0 8 94
3 2 26 93
3 0 43 94
3 1 16 95
3 1 17 95
3 74 112 114
3 46 47 83
3 58 59 82
3 11 12 122
3 38 39 121
3 53 54 116
3 49 50 115
3 6 52 112
3 5 48 113
3 30 31 87
3 21 22 86
3 61 94 108
3 63 95 109
3 56 57 89
3 44 45 88
3 71 82 110
3 70 83 111
3 28 29 91
3 19 20 90
3 6 99 114
3 62 120 126
3 79 120 126
3 7 56 96
3 4 44 97
3 7 55 98
3 6 51 99
3 60 78 123
3 65 78 96
3 64 79 97
3 67 80 98
3 66 81 99
3 33 78 117
3 24 79 120
3 36 80 118
3 9 81 119
3 60 78 117
3 60 80 118
3 61 81 119
3 40 41 100
3 13 14 101
3 54 55 103
3 50 51 102
3 82 91 110
3 83 90 111
3 72 82 91
3 73 83 90
3 39 40 104
3 12 13 105
3 7 98 123
3 33 34 117
3 35 36 118
3 24 25 120
3 8 9 119
3 20 21 111
3 29 30 110
3 68 105 115
3 69 104 116
3 76 105 115
3 77 104 116
3 67 103 121
3 66 102 122
3 76 102 122
3 77 103 121
3 61 108 114
3 74 108 114
3 69 100 112
3 68 101 113
3 74 100 112
3 75 101 113
3 72 84 106
3 73 85 107
3 26 27 124
3 17 18 125
3 70 86 88
3 71 87 89
3 65 87 89
3 64 86 88
3 62 84 106
3 63 85 107
3 62 84 124
3 63 85 125
3 78 96 123
3 34 92 117
3 35 92 118
3 25 93 120
3 8 94 119
3 4 97 126
3 4 106 126
3 29 91 110
3 20 90 111
3 62 93 124
3 63 95 125
3 27 84 124
3 18 85 125
3 60 92 117
3 60 92 118
3 61 94 119
3 62 93 120
3 7 96 123
3 26 93 124
3 17 95 125
3 62 106 126
3 79 97 126
CELL_TYPES 194
5 5 5 5 5 5 5 5 5 5 5 5 5 5 5 5 5 5 5 5 5 5 5 5 5 5 5 5 5 5 5 5 5 5 5 5 5 5 5 5 5 5 5 5 5 5 5 5 5 5 5 5 5 5 5 5 5 5 5 5 5 5 5 5 5 5 5 5 5 5 5 5 5 5 5 5 5 5 5 5 5 5 5 5 5 5 5 5 5 5 5 5 5 5 5 5 5 5 5 5 5 5 5 5 5 5 5 5 5 5 5 5 5 5 5 5 5 5 5 5 5 5 5 5 5 5 5 5 5 5 5 5 5 5 5 5 5 5 5 5 5 5 5 5 5 5 5 5 5 5 5 5 5 5 5 5 5 5 5 5 5 5 5 5 5 5 5 5 5 5 5 5 5 5 5 5 5 5 5 5 5 5 5 5 5 5 5 5 5 5 5 5 5 5
POINT_DATA 127
SCALARS Temperature_(Fourier) double 1
LOOKUP_TABLE default
-0.468776623697
0.455110903419
0.456637291102
-0.467436248143
0.334686999973
0.318848733773
-0.347858789169
-0.335149973846
-0.414846933563
-0.335381977641
-0.214665002159
-0.113876986906
-0.0168006594097
0.107439355983
0.241209481708
0.330525575236
0.395691487069
0.467174122749
0.4694141538
0.470388418834
0.488163918837
0.49077655587
0.486693570516
0.481357458136
0.477310170837
0.469996371513
0.40325347129
0.332930233254
0.226844034979
0.102368904665
-0.00677878448092
-0.116461179918
-0.228992967024
-0.333514803829
-0.413502175929
-0.478573577274
-0.476626001967
-0.476306887976
-0.491055964675
-0.487971297792
-0.48816561067
-0.483282978368
-0.492846467599
-0.480963427616
0.440498190044
0.45840192538
0.455065946198
0.432545478245
0.182114988387
0.086430977376
-0.0462577536109
-0.184209152101
-0.423008957024
-0.447605743567
-0.453547495154
-0.431193755285
-0.17806207752
-0.0493626725258
0.056156500014
0.171971161823
-0.394701833934
-0.392700552504
0.379940801285
0.382777839514
0.463629819904
-0.174857524714
-0.19562257405
-0.450449039069
0.101925050245
-0.457578145011
0.464641213602
0.00205258753914
0.227706651599
0.433551627769
-0.449623170018
0.278987927179
-0.0278387034376
-0.474118573723
-0.302874746252
0.454272481626
-0.4380768448
-0.309442332566
0.10815180217
0.455923377145
0.31248080342
0.437137150003
0.478619390447
-0.0572533093928
0.460654956482
-0.0908704507106
0.472354363134
0.142898886027
-0.440521992202
0.430380017151
-0.442050680854
0.424938995309
-0.265595393854
0.423505500491
-0.407016941435
-0.276168236231
-0.469900439614
0.15984950039
-0.0902696508864
-0.457453529767
-0.476728113455
0.0571452455149
0.32714355654
0.372523321759
-0.457047027429
0.340254132092
0.0492127444728
0.478992750102
-0.430358831074
0.182294153949
-0.380293189503
0.0127410937746
-0.460752160665
-0.376725100279
-0.455484474244
-0.378984917388
0.443224285084
-0.478716938317
-0.109012969534
-0.356970586347
0.370686283998
0.44581957582
0.394914592484
SCALARS Temperature_(BTE) double 1
LOOKUP_TABLE default
-0.461863112479
0.464244239711
0.457499550249
-0.467303979274
0.380568204864
0.361285207756
-0.414933369257
-0.385118525973
-0.406458831121
-0.324343967166
-0.208826269857
-0.113561633794
-0.0130976945232
0.110667978688
0.237061960506
0.326439632275
0.395303132566
0.486275326721
0.479734348789
0.495839621314
0.521663656338
0.528106143972
0.516672947462
0.498511843606
0.484398398726
0.477631463614
0.403001073509
0.331911664055
0.220898433479
0.0990232725926
-0.00839966588127
-0.115281981793
-0.219639068386
-0.320213276734
-0.402705431087
-0.485993769071
-0.483591835758
-0.504385557863
-0.496165627227
-0.51012538978
-0.49713997163
-0.498051595111
-0.496923640598
-0.476145728596
0.598004064587
0.59708814627
0.600127423997
0.59253039906
0.155241652404
0.0716818977884
-0.0440765666261
-0.158551627124
-0.614724278802
-0.584070669044
-0.581116951338
-0.599214690133
-0.148217211573
-0.0412318565119
0.0477496791567
0.149188915834
-0.397567442557
-0.391620459951
0.381846503114
0.396141255904
0.542659054035
-0.160852582854
-0.183241758399
-0.543653844244
0.0923603703276
-0.555116700419
0.583711559547
0.00359000239311
0.213438341358
0.525900335499
-0.498659607915
0.274867742709
-0.0248722679244
-0.543027341451
-0.289000918996
0.483740278285
-0.469023827713
-0.302713684416
0.0970172493677
0.581057983285
0.310257658136
0.459097321419
0.55167581787
-0.0524948706004
0.580910358614
-0.0770577227376
0.538699301244
0.135657850757
-0.439848795006
0.433009841883
-0.437410944734
0.437981470306
-0.239842534765
0.530063608975
-0.517520629153
-0.256063747491
-0.505630130132
0.15693233826
-0.0832457167466
-0.567372256376
-0.529408128688
0.056633115714
0.323851084654
0.4046791917
-0.471648235017
0.341841976503
0.0476143110202
0.551378314421
-0.548610578741
0.164176411563
-0.414439189703
0.00880827953139
-0.567447286018
-0.364263097051
-0.463530110907
-0.372127602985
0.45082242191
-0.522638425281
-0.104765019711
-0.367640468942
0.373332599598
0.462483870925
0.416873388333
VECTORS Flux_(Fourier) double
13.2218416714 -0.82875609468 0.0
13.2781401614 0.258038053808 0.0
13.0780730164 -0.997017629376 0.0
13.1493374008 0.328505701517 0.0
13.5990808415 -6.71323246766 0.0
12.478681011 5.02669424222 0.0
12.150778735 -6.79517553227 0.0
13.722276753 8.25517320332 0.0
13.414592894 -0.339720921159 0.0
15.2048907769 -0.628720490963 0.0
17.1758237063 -0.976526499344 0.0
18.3342634966 -0.57416793397 0.0
18.0398870443 0.419633807022 0.0
18.0599715398 0.156695779111 0.0
17.7360245041 0.217246538528 0.0
13.7101581602 0.126942041979 0.0
12.8620225063 0.185447759614 0.0
11.9599671462 0.597774165343 0.0
10.2266425981 0.801206378868 0.0
7.38428529536 2.40344999392 0.0
5.4100081732 1.20469324747 0.0
4.32144295637 0.191562580319 0.0
4.37209804407 -0.686174474678 0.0
6.94577315528 -1.62006939533 0.0
10.0073491567 -1.73001561048 0.0
12.0365198655 -1.54904824156 0.0
12.8151784034 -0.469128443958 0.0
13.3648080616 -0.129160716479 0.0
17.7728083407 -0.328081602193 0.0
18.3825896862 -0.404709894332 0.0
17.9545391718 -0.122509708106 0.0
16.820898911 -0.382901060817 0.0
17.2411190709 0.22472481324 0.0
15.4386775044 0.18213712566 0.0
13.3114931758 0.00154178569719 0.0
11.8872484241 0.501447748506 0.0
10.1349656685 0.554212618087 0.0
6.83129795381 1.55010108488 0.0
5.09179064211 0.724398878041 0.0
4.38179431905 -0.0636580687881 0.0
5.58636594409 -0.446174734013 0.0
8.62961703795 -0.371293363608 0.0
10.1401946551 -0.620185752558 0.0
11.9400170137 -1.25375313649 0.0
1.89311921737 -5.01953205512 0.0
0.605060828669 -0.673630347976 0.0
0.755819850632 1.86518329616 0.0
1.28221909727 5.56364608435 0.0
16.0629304872 1.10227361836 0.0
17.0749787957 2.38368038884 0.0
19.6455634636 0.992879181121 0.0
19.4727631237 -0.690022835587 0.0
0.948134361131 -5.5760144894 0.0
2.15398586996 -2.63779515988 0.0
0.688171234397 0.924118376544 0.0
2.29252843082 5.59928544236 0.0
19.6264152117 0.651659083845 0.0
18.3078318519 -0.910293001437 0.0
17.6626092074 0.0136535007865 0.0
18.7520912854 -0.158161606826 0.0
13.2376435471 2.02346124994 0.0
13.8479559023 -2.11833666034 0.0
13.1843224465 -2.77855227311 0.0
12.5327686782 2.08415113527 0.0
4.65524770632 -2.60369998222 0.0
18.140596966 0.497504658096 0.0
18.3590494089 -0.903960029675 0.0
5.40618221929 3.62360263108 0.0
16.9184834247 1.60888631176 0.0
3.69112515208 -1.89576649176 0.0
2.12415981724 0.468457806643 0.0
17.6895998524 -0.562042579765 0.0
18.5595448929 -0.801270767755 0.0
5.71747109029 5.69932113154 0.0
8.77230839284 -2.14457822838 0.0
17.5506075063 1.74247007819 0.0
18.5566850178 0.869178836594 0.0
3.76071432814 0.0654750677917 0.0
16.4650919459 1.57729746742 0.0
8.56574171049 -3.39598043469 0.0
9.80789133138 2.910474266 0.0
15.9782952921 -1.89904154355 0.0
18.0954062351 -0.405362615529 0.0
2.94485777407 2.73275120553 0.0
15.0799932863 -1.37545445183 0.0
10.2758365132 2.69711160552 0.0
3.60440536701 -0.278906475598 0.0
17.6579198425 -0.540334360774 0.0
2.06891722674 -1.66544768151 0.0
18.6505865525 -0.673445083757 0.0
5.04330827759 2.07666668221 0.0
18.3703169744 -0.526136827834 0.0
12.8474577314 0.772426238205 0.0
12.8679349636 -1.68827244666 0.0
12.9410042231 -1.54734370897 0.0
12.5246940983 0.753976304418 0.0
19.0733906654 2.76218687642 0.0
6.13590146436 -7.72856299177 0.0
7.2079354641 8.18750781885 0.0
18.7370917599 -3.27430540269 0.0
5.98407255376 -1.51575898584 0.0
18.6458558284 0.381668138082 0.0
19.3428330678 0.739824599333 0.0
2.66702567083 1.88468207676 0.0
4.30367247367 -0.67522587532 0.0
17.846682122 1.09402965793 0.0
16.6254513903 -3.7937740147 0.0
12.1358099864 6.03834060123 0.0
11.5176993402 -1.61513071538 0.0
13.6136180142 1.05725375208 0.0
17.9975287364 -0.432578982628 0.0
3.98747344242 0.899950972984 0.0
4.89973151337 -5.05603419271 0.0
17.7395969917 1.2060152354 0.0
13.318618201 -4.62786897214 0.0
18.6684803151 1.38626569788 0.0
2.433737869 -0.539970634343 0.0
13.9586695646 0.977197075902 0.0
11.5257746685 0.567385680774 0.0
13.9074333489 -1.48289118553 0.0
11.3937836875 -2.54997838304 0.0
4.71880134808 1.02641381952 0.0
17.9404035922 -0.329568707476 0.0
14.7871190217 5.70857163603 0.0
12.7659566852 -1.27576488438 0.0
11.6033677181 0.807951711419 0.0
12.0982574525 -6.59300901507 0.0
VECTORS Flux_(BTE) double
1.71511812228 -0.0153572533381 -1.45089108847
1.70414222964 0.0130071429875 1.4624775641
1.69046039837 0.000690516008437 1.43754040172
1.69857993155 0.0161383034345 -1.47096945549
1.24473028662 -0.171562355852 1.20567048555
1.25469338087 0.139732737529 1.14925430811
1.01634373722 -0.151462512609 -1.32475272809
1.15615854653 0.175834736405 -1.21821720482
1.75966769419 -0.0338585003741 -1.27481209319
1.83646859781 -0.0389434241444 -1.01759198159
1.87634294365 -0.0254106770932 -0.664171233195
1.88144157183 -0.011034747765 -0.364765715095
1.89033900758 -0.000839369545731 -0.0411132286039
1.91088176168 0.00285630681978 0.35532490661
1.88937636502 0.0301984569888 0.750536631673
1.82005114704 0.0189358693867 1.02756368465
1.7337186272 0.0269593577865 1.24081634121
1.67643689398 -0.00248604193934 1.53754224707
1.38649632363 0.0198984452862 1.49986093345
0.65505370122 0.0882177101105 1.56265503006
0.133190375063 -0.010725658967 1.65900620769
-0.00269989206995 -0.00928115180271 1.67970619778
0.13662166543 -0.0284110841459 1.63676152703
0.651878058804 -0.0803689529997 1.571887517
1.25754400956 -0.0714933176996 1.51810676498
1.6266466643 -0.0172952948822 1.50317921202
1.7329411871 -0.0404838015566 1.26543942511
1.79863305444 -0.0215764944028 1.04359267487
1.86566923694 -0.00881518956302 0.697092177481
1.89148813975 0.00292063564559 0.310541759388
1.897608529 -0.00637311906969 -0.033022355582
1.86954409391 -0.00367096050705 -0.370741473313
1.85910016332 0.0153232160914 -0.690990699196
1.82837090724 0.0199488473319 -1.00210713036
1.76093444214 0.0163389899557 -1.26213087483
1.57625929341 0.0145973867175 -1.53227156913
1.30245847382 0.0299487221331 -1.51923570409
0.589380768855 0.0363304216424 -1.5977413058
0.188080666399 0.00680795836089 -1.55801941031
-0.0391287096821 -0.0252959635006 -1.60958725287
0.152915433068 -0.0468167709954 -1.56070898977
0.72112677284 -0.0513227025182 -1.57259745302
1.2757453713 -0.0155832914599 -1.56927001877
1.67250086282 -0.0228610602479 -1.49574920517
0.0902503840294 -0.015313816261 1.9609746125
0.0147868648277 0.0130411293537 1.93724703944
0.0291440679131 0.0170050100776 1.95026819445
0.0963129409905 0.0611735072774 1.93991434257
1.68789736325 0.00467092122047 0.476392193448
1.72478158615 0.0134417568635 0.219857690536
1.73421769879 0.0128457074131 -0.136157501694
1.71838926166 0.0118393451279 -0.484933668012
0.0403458207132 0.00179798237568 -2.02063165562
2.29683796607e-05 0.0283475799708 -1.89136890491
-0.00693882849935 -0.0164657894872 -1.87657829559
0.108235049227 0.00629406607475 -1.96938507246
1.67766220469 -0.00797715615782 -0.449736953209
1.67637015385 -0.00785169575866 -0.126133760835
1.67975978888 -0.005613585862 0.143437023363
1.68048234869 -0.0071291634145 0.455862412918
1.57992645482 0.124256567187 -1.24578428595
1.70534302357 -0.12197926287 -1.23043200534
1.66650835013 -0.124528110083 1.19358135632
1.66500135415 0.114626979079 1.24457389412
0.25990248761 -0.0496011276559 1.7461272472
1.7971555272 0.0048812947865 -0.502360131164
1.82757585809 -0.0140477800545 -0.577898507464
0.342482189418 0.0416911158494 -1.756337726
1.80121970448 0.0103459772215 0.285288157007
0.0678067019365 -0.00600918230504 -1.78772230691
0.00894088312833 0.0086629361184 1.88707008305
1.74267077557 -0.00860243515752 0.0138600569372
1.7720517359 -0.0338446606516 0.664880279545
0.499827117457 0.147227456686 1.69113672376
0.782552748031 -0.154198653857 -1.58713699693
1.80523290828 0.0934946595607 0.85974866108
1.85108387373 -0.00152390613278 -0.079033839665
-0.0808021890133 -0.0155190490626 -1.73373548261
1.7828445776 0.0701416722081 -0.904059832993
0.963337037825 -0.155314632934 1.52567397192
1.12622832572 0.147028294325 -1.47830530173
1.81299111696 -0.0953975611309 -0.955157003315
1.74252130206 -0.00758225712111 0.299975093744
0.0507547289181 0.0142107203597 1.88475871408
1.7813107142 -0.0584136357397 0.975120120394
1.25754158821 0.126203925716 1.43523648197
0.0143808978934 0.00745747185344 1.77037069608
1.83660816983 -0.0124536327121 -0.164154369344
0.0149252534868 0.00817647892659 1.87967953416
1.72689380704 -0.00784824600848 -0.233948066588
0.189998600124 0.0159179821892 1.72842243948
1.84792312419 -0.00893063770878 0.427077286078
1.65053673315 0.0435947148285 -1.38272806796
1.69376283241 -0.0479369553266 1.35956393919
1.70711962467 -0.0535216538145 -1.37385752737
1.68511707985 0.0377613053991 1.38177942318
1.69991278079 0.0755423533629 -0.736437148881
0.597218231019 -0.184957052295 1.71344402734
0.697445778504 0.188877407469 -1.67097766027
1.73281268547 -0.0979639060365 -0.79219949151
0.354135907713 -0.0783707895311 -1.60059112905
1.88050845472 0.0125213054875 0.495774905862
1.78801616387 0.00769424081458 -0.259650802032
-0.0117642177655 -0.0187681427282 -1.82896800452
0.0104717634477 -0.0259328722516 -1.68655314608
1.87102451896 0.00332122785169 0.177600379454
1.6913538088 -0.153028335618 1.00565549972
1.38124606825 0.231187879703 1.26836493557
1.35328686417 -0.0927092853706 -1.49072426818
1.78063906342 0.0639724354716 1.07736218601
1.85321067719 -0.00319846411854 0.150383662385
0.0186037039317 -0.0143182147021 1.76890675989
0.341169482621 -0.111302102824 -1.7745739208
1.76304390887 0.0233093726084 0.506719861761
1.3139681015 -0.217943995253 -1.31080348808
1.78328025043 0.00279601139559 0.0264000933807
-0.0442252578451 0.00875128721932 -1.82520563224
1.75527038428 0.0499245059886 -1.14043031754
1.48415793066 0.0680448554352 -1.45526184891
1.76841373262 -0.0746570892707 -1.16877366749
1.49608166888 -0.104533195311 1.41065327606
0.0981593699802 -0.000393310431738 -1.66051078933
1.86703786444 -0.00721689147502 -0.333424967479
1.49891550139 0.23562646576 -1.14135394091
1.74706144185 -0.073005693963 1.17303343512
1.61928017796 0.0352133141666 1.45434208616
1.36969156968 -0.25168378111 1.29946038693