# vtk DataFile Version 2.0
Really cool data
ASCII
DATASET UNSTRUCTURED_GRID
POINTS 146 double
-5.0 5.0 0.0
5.0 5.0 0.0
5.0 -5.0 0.0
-5.0 -5.0 0.0
-4.0 5.0 0.0
-3.0 5.0 0.0
-2.0 5.0 0.0
-1.0 5.0 0.0
0.0 5.0 0.0
1.0 5.0 0.0
2.0 5.0 0.0
3.0 5.0 0.0
4.0 5.0 0.0
5.0 4.0 0.0
5.0 3.0 0.0
5.0 2.0 0.0
5.0 1.0 0.0
5.0 0.0 0.0
5.0 -1.0 0.0
5.0 -2.0 0.0
5.0 -3.0 0.0
5.0 -4.0 0.0
4.0 -5.0 0.0
3.0 -5.0 0.0
2.0 -5.0 0.0
1.0 -5.0 0.0
0.0 -5.0 0.0
-1.0 -5.0 0.0
-2.0 -5.0 0.0
-3.0 -5.0 0.0
-4.0 -5.0 0.0
-5.0 -4.0 0.0
-5.0 -3.0 0.0
-5.0 -2.0 0.0
-5.0 -1.0 0.0
-5.0 0.0 0.0
-5.0 1.0 0.0
-5.0 2.0 0.0
-5.0 3.0 0.0
-5.0 4.0 0.0
0.0 0.0 0.0
2.0366 -2.1863 0.0
2.1863 2.0366 0.0
-1.9767 -2.0504 0.0
-2.0714 2.0714 0.0
0.0 -2.8031 0.0
2.7586 -0.0693 0.0
-2.8488 0.03 0.0
0.0693 2.7586 0.0
3.295 -3.295 0.0
-3.295 -3.295 0.0
3.295 3.295 0.0
-3.295 3.295 0.0
1.5353 -3.5802 0.0
3.4887 -1.4071 0.0
-3.4887 -1.4071 0.0
1.4071 3.4887 0.0
-1.5324 -3.437 0.0
3.4887 1.4071 0.0
-3.4818 1.4079 0.0
-1.3834 3.4795 0.0
0.754 -1.4099 0.0
1.4099 0.754 0.0
-1.4016 -0.6699 0.0
-0.741 1.3469 0.0
1.6315 -0.7708 0.0
-0.8146 -1.8113 0.0
0.7708 1.6315 0.0
-1.5047 0.6751 0.0
-0.4245 -3.8527 0.0
3.9016 0.3354 0.0
-3.9032 0.3953 0.0
-0.3354 3.9016 0.0
2.4123 -4.0128 0.0
4.0233 -2.3907 0.0
-4.0233 -2.3907 0.0
2.3907 4.0233 0.0
4.0061 2.403 0.0
-2.4129 -4.0164 0.0
-4.0056 2.403 0.0
-2.3883 4.0224 0.0
0.9896 -2.3675 0.0
-2.4463 -1.0765 0.0
2.3574 0.9879 0.0
-1.0601 2.4287 0.0
-2.4535 1.0648 0.0
-0.3786 -0.9883 0.0
0.9949 -0.1733 0.0
0.1441 0.9933 0.0
4.0431 -4.0431 0.0
-4.0012 -4.0012 0.0
4.0012 4.0012 0.0
-4.0311 4.0311 0.0
0.7073 -4.1746 0.0
4.1675 -0.7008 0.0
-4.1678 -0.6908 0.0
0.7008 4.1675 0.0
2.3269 -3.0276 0.0
2.9962 2.3702 0.0
-2.3427 -2.9802 0.0
-2.9309 2.2091 0.0
2.9583 -2.2696 0.0
2.2644 2.9655 0.0
-2.9288 -2.2 0.0
-2.2779 3.0127 0.0
2.5183 -1.2683 0.0
-0.8216 -2.7416 0.0
1.2675 2.5193 0.0
-0.9171 0.0465 0.0
1.8305 0.1457 0.0
0.0056 -1.9709 0.0
-0.1234 1.8666 0.0
-1.5433 1.4721 0.0
1.5221 -4.3451 0.0
4.3359 -1.4997 0.0
1.4997 4.3359 0.0
-4.336 -1.4977 0.0
-1.474 -4.2612 0.0
4.2793 1.4291 0.0
-4.2781 1.4413 0.0
-1.4214 4.2807 0.0
4.219 -3.2387 0.0
3.2398 -4.2185 0.0
-4.2003 -3.201 0.0
3.201 4.2003 0.0
-3.201 -4.2003 0.0
4.2003 3.201 0.0
-3.201 4.2003 0.0
-4.2003 3.201 0.0
1.5261 -1.5718 0.0
-1.5059 -1.4261 0.0
1.5707 1.526 0.0
-1.9682 -0.0628 0.0
0.7462 -3.2653 0.0
3.3669 -0.622 0.0
-3.348 -0.5736 0.0
0.6219 3.3671 0.0
3.1618 0.7277 0.0
-3.1718 0.7245 0.0
-0.6774 3.1421 0.0
-1.4976 -2.6041 0.0
-0.5586 0.633 0.0
1.6174 -2.8397 0.0
2.8135 1.6693 0.0
0.4744 -0.7055 0.0
0.6907 0.5377 0.0
CELLS 250 1000
3 65 87 144
3 67 88 145
3 2 22 89
3 2 21 89
3 1 12 91
3 3 31 90
3 1 13 91
3 3 30 90
3 0 39 92
3 0 4 92
3 66 86 130
3 68 85 132
3 61 65 144
3 62 67 145
3 46 65 105
3 48 67 107
3 47 85 132
3 63 86 130
3 55 82 103
3 60 84 104
3 43 82 103
3 44 84 104
3 59 85 100
3 26 27 69
3 16 17 70
3 35 36 71
3 7 8 72
3 45 69 106
3 57 69 106
3 27 69 117
3 16 70 118
3 36 71 119
3 7 72 120
3 46 105 134
3 48 107 136
3 43 66 130
3 61 65 129
3 62 67 131
3 43 66 140
3 44 85 100
3 63 86 108
3 64 68 141
3 46 65 109
3 48 67 111
3 64 68 112
3 57 69 117
3 58 70 118
3 59 71 119
3 60 72 120
3 23 24 73
3 19 20 74
3 32 33 75
3 10 11 76
3 28 29 78
3 14 15 77
3 37 38 79
3 5 6 80
3 40 86 108
3 26 69 93
3 17 70 94
3 35 71 95
3 8 72 96
3 66 106 140
3 53 73 97
3 58 77 98
3 57 78 99
3 59 79 100
3 45 69 133
3 46 70 134
3 47 71 135
3 48 72 136
3 68 108 141
3 62 83 109
3 61 81 110
3 64 84 111
3 64 84 112
3 45 106 110
3 66 106 110
3 49 74 101
3 51 76 102
3 50 75 103
3 52 80 104
3 46 83 109
3 45 81 110
3 48 84 111
3 44 84 112
3 25 26 93
3 17 18 94
3 34 35 95
3 8 9 96
3 47 85 138
3 20 74 121
3 23 73 122
3 32 75 123
3 11 76 124
3 29 78 125
3 14 77 126
3 38 79 128
3 5 80 127
3 54 74 101
3 56 76 102
3 55 75 103
3 60 80 104
3 49 73 97
3 50 78 99
3 51 77 98
3 52 79 100
3 20 21 121
3 22 23 122
3 31 32 123
3 11 12 124
3 29 30 125
3 13 14 126
3 38 39 128
3 4 5 127
3 69 93 133
3 70 94 134
3 71 95 135
3 72 96 136
3 21 89 121
3 22 89 122
3 31 90 123
3 12 91 124
3 30 90 125
3 13 91 126
3 4 92 127
3 39 92 128
3 49 97 101
3 50 99 103
3 51 98 102
3 52 100 104
3 62 83 131
3 61 81 129
3 63 82 130
3 63 82 132
3 46 70 137
3 58 70 137
3 47 71 138
3 48 72 139
3 59 71 138
3 60 72 139
3 24 73 113
3 19 74 114
3 33 75 116
3 10 76 115
3 53 73 113
3 54 74 114
3 58 77 118
3 57 78 117
3 56 76 115
3 55 75 116
3 28 78 117
3 15 77 118
3 59 79 119
3 60 80 120
3 37 79 119
3 6 80 120
3 53 133 142
3 41 105 129
3 65 105 129
3 42 107 131
3 67 107 131
3 56 102 107
3 54 101 105
3 41 81 129
3 42 83 131
3 43 82 130
3 47 82 132
3 81 133 142
3 63 108 132
3 68 108 132
3 41 101 105
3 42 102 107
3 49 73 122
3 49 74 121
3 51 76 124
3 50 75 123
3 50 78 125
3 51 77 126
3 52 80 127
3 52 79 128
3 45 81 133
3 55 82 135
3 47 82 135
3 68 85 112
3 44 85 112
3 41 97 101
3 42 98 102
3 43 99 103
3 44 100 104
3 65 87 109
3 61 86 110
3 66 86 110
3 62 87 109
3 67 88 111
3 64 88 111
3 46 83 137
3 48 84 139
3 60 84 139
3 41 81 142
3 42 83 143
3 53 97 142
3 58 98 143
3 57 99 140
3 83 137 143
3 49 89 122
3 49 89 121
3 51 91 124
3 50 90 123
3 50 90 125
3 51 91 126
3 52 92 127
3 52 92 128
3 58 137 143
3 25 93 113
3 18 94 114
3 34 95 116
3 9 96 115
3 53 93 113
3 54 94 114
3 55 95 116
3 56 96 115
3 54 105 134
3 56 107 136
3 24 25 113
3 18 19 114
3 33 34 116
3 9 10 115
3 27 28 117
3 15 16 118
3 36 37 119
3 6 7 120
3 59 85 138
3 40 88 141
3 40 87 144
3 40 86 144
3 40 87 145
3 40 88 145
3 64 88 141
3 53 93 133
3 54 94 134
3 55 95 135
3 56 96 136
3 61 86 144
3 62 87 145
3 41 97 142
3 42 98 143
3 43 99 140
3 57 106 140
3 40 108 141
CELL_TYPES 250
5 5 5 5 5 5 5 5 5 5 5 5 5 5 5 5 5 5 5 5 5 5 5 5 5 5 5 5 5 5 5 5 5 5 5 5 5 5 5 5 5 5 5 5 5 5 5 5 5 5 5 5 5 5 5 5 5 5 5 5 5 5 5 5 5 5 5 5 5 5 5 5 5 5 5 5 5 5 5 5 5 5 5 5 5 5 5 5 5 5 5 5 5 5 5 5 5 5 5 5 5 5 5 5 5 5 5 5 5 5 5 5 5 5 5 5 5 5 5 5 5 5 5 5 5 5 5 5 5 5 5 5 5 5 5 5 5 5 5 5 5 5 5 5 5 5 5 5 5 5 5 5 5 5 5 5 5 5 5 5 5 5 5 5 5 5 5 5 5 5 5 5 5 5 5 5 5 5 5 5 5 5 5 5 5 5 5 5 5 5 5 5 5 5 5 5 5 5 5 5 5 5 5 5 5 5 5 5 5 5 5 5 5 5 5 5 5 5 5 5 5 5 5 5 5 5 5 5 5 5 5 5 5 5 5 5 5 5 5 5 5 5 5 5 5 5 5 5 5 5
POINT_DATA 146
SCALARS BTE_Temperature_[K] double 1
LOOKUP_TABLE default
0.44814721969804494
-0.4475636495505223
-0.4491089060209852
0.44716561116506276
0.38086159095245703
0.29035091049138545
0.1940406294677188
0.09396464414451822
-0.009020223523336791
-0.10555359289250249
-0.19769280875628584
-0.2914145976463974
-0.3811201028007977
-0.4608861287596812
-0.46157004195055323
-0.46246662208077227
-0.459577014920405
-0.45806953182035376
-0.4670004972967267
-0.46423205149063923
-0.46200961231517074
-0.46212726830204315
-0.38240138095446574
-0.29232438696674334
-0.19861734510741816
-0.10617806903857376
-0.0076283247530524664
0.0963463511682558
0.19558177719283507
0.29088159672224945
0.38064174263573597
0.4605954137254324
0.46156629799477383
0.46421104567679433
0.4669412055553484
0.45788741863147625
0.4598448279887524
0.4620312116775131
0.4609841723155059
0.4610008488890392
-0.00412676211490117
-0.20018765214441578
-0.2198323074718834
0.19324714182130975
0.20613977720029747
-0.006666283933436652
-0.269004445496621
0.28718777699804315
-0.006616789423116157
-0.3322753764686374
0.3307192621345022
-0.33080270502689907
0.32954523067626523
-0.15426333066261136
-0.35438660570529096
0.3533551793897723
-0.14471354993053331
0.14931462661141912
-0.3516745523834212
0.34696179779382175
0.1372901484156017
-0.07172013302579885
-0.1363920075023213
0.14325486253498074
0.07762790865965648
-0.15694976554158785
0.09677068697006286
-0.07191989744992314
0.14109130728661332
0.04095021021256534
-0.39037413607454224
0.39142863361860203
0.03686774514496517
-0.2416563972382832
-0.404479760145762
0.40375572138133353
-0.23872155370567727
-0.4041851238605244
0.23971463952527663
0.402372104774019
0.23631735210108026
-0.0952476399022857
0.24357263990282788
-0.22645297051778987
0.10937017646152052
0.2442328785586873
0.04260248150097408
-0.09983235950409018
-0.0034023560932677486
-0.4101792286798382
0.408213014745219
-0.4085420322839477
0.40869615137909654
-0.07293106469708062
-0.41839565018127395
0.4182995888524259
-0.0711709530277458
-0.23130257032535018
-0.30090731280097427
0.22866141574787302
0.29200316092662565
-0.2957185546280801
-0.2262353099191932
0.292915611806339
0.2211753392696522
-0.2534031839703827
0.07392618122406798
-0.1270036979284202
0.0967135784941036
-0.18087804803998467
0.00365856473442764
0.016593835791128976
0.15631027946521825
-0.153285110389515
-0.43397368205279907
-0.15086283471602657
0.4340335558418735
0.14575855566323068
-0.42878645449478625
0.42853032965934246
0.14130893974150835
-0.42758674440027944
-0.33169875908924884
0.4264538168363042
-0.3299183609502222
0.3297960443599316
-0.4268041524677567
0.32943133295222937
0.4262568558691494
-0.15611970074056297
0.144191362586985
-0.15755993535353555
0.19355871019083973
-0.07310449691165104
-0.336953522739806
0.3377612894221455
-0.06305774056788868
-0.30798048722059523
0.31718683587190083
0.06900228981092214
0.14875248247931847
0.060476826581714896
-0.1545814781856451
-0.28285250646590404
-0.056170827401700874
-0.06706492514509868
VECTORS BTE_Thermal_Flux_[W/m/m] double
0.03323458688505067 0.001745346358662227 0.3519322606279526
0.033018369077251 -0.0017805369795384509 -0.35148999835505373
0.033207059080003216 0.0017377264940852347 -0.35270422125261436
0.03297109324171653 -0.0018746551788369667 0.35116447484734953
0.03315749686723548 0.0020284637081395603 0.2990925229279238
0.03390539769350608 0.001765704056667045 0.22803871265218423
0.03365824527075586 6.331012261114048e-05 0.15239251933225761
0.033589942458350903 0.0013116923173079806 0.07379822600850083
0.03338828090200854 0.00041941018928929506 -0.0071126653879787964
0.0337942467896894 0.00037459865708679233 -0.08293125293590668
0.03348158761312148 0.00020606345224145344 -0.1552833693197724
0.03360887181413567 -0.0017588562208704416 -0.22890022444915026
0.03311767579475766 -0.0021304707150334567 -0.2993174241104294
0.032957074280379806 -0.00010854310125116074 -0.3619912868154606
0.03261508243081515 -9.919105456841915e-05 -0.36251763269979015
0.03279376718592857 0.0007970656924299996 -0.3632254435747635
0.03272478497348511 -0.00038834765696363235 -0.36093367412988914
0.03221619041755479 0.0003867000808667191 -0.359750468920012
0.033483113643812706 0.0002080986838925097 -0.36678580922262566
0.0329741911652968 -0.0005716354278821468 -0.364601032990632
0.032775830149880635 0.000165059745917912 -0.3628561303023025
0.03327092172488267 9.498677866317451e-05 -0.3629649976525335
0.033119987588845275 0.00192876358282531 -0.300322992517546
0.033573488977392235 0.00149198807851985 -0.22960990252441574
0.03361125377461038 -1.998360621672175e-05 -0.15599882391250083
0.033736262106298626 -6.0745449515856065e-05 -0.08342320233222023
0.033115676930534764 -0.00012203815659902479 -0.006012807772710647
0.033629773701900824 -0.0010209465329944951 0.07565918833016809
0.033802168528850395 -5.15865572769473e-05 0.15359566605520136
0.03395897611689693 -0.0017551950807482865 0.22845426037893854
0.03313703119609595 -0.0021779473624754853 0.2989228932145896
0.032926158058777445 -0.00019438495889781196 0.36175480386257003
0.03274928071502407 -0.00020679412681567585 0.36250379643699676
0.032975474250368474 0.0005333791004909074 0.364587915187335
0.03343802536348833 -0.0002061097028875203 0.36674245239799835
0.03223140396674605 -0.00042131087736301545 0.3596048952024971
0.03262711588036019 0.0004438967130731839 0.36115153127956123
0.03294176441541582 -0.0006885494102157767 0.36287009428118205
0.03271299763671368 0.00012030631070545767 0.362037194369639
0.033179287673749176 0.00011116989705898981 0.3620641180435695
0.03376843340741153 -0.0008331745541035066 -0.0032240958373500514
0.03376451062782507 0.00018983613992916721 -0.15722317692448665
0.03405008429072049 0.0006056537251388442 -0.17265009695996095
0.03344180898541369 -2.4303958137160165e-05 0.15176776173830878
0.033198675780877984 -0.0005346402867575378 0.16190898492361155
0.03327625714085309 -0.0010114619039218477 -0.005227157187295657
0.03301502914370089 -0.0005161178689941303 -0.21126972092469745
0.03392836482528088 0.00024144130518030367 0.22556702251687402
0.033264187538252145 0.00046255024576481073 -0.005185327086953817
0.03331297040685873 -0.00022026313011572682 -0.2609845699614045
0.03363017541854753 0.0002688318428398229 0.2597499418179142
0.033522670374230026 0.00025993107386807813 -0.25983447653808933
0.033604446194473524 -0.00024899195395350067 0.2588236796081896
0.03355471927990937 -0.00042122557498922584 -0.12115658636227511
0.033660179175021954 -8.35484945999709e-05 -0.27833716871320285
0.03330134720549145 -0.00037656552358982567 0.27754013931629545
0.03336721207108768 0.00019713432980183673 -0.1136626984750191
0.033042887974021995 6.955161861934851e-05 0.11724241664312669
0.03472722516565131 0.0005917003367664398 -0.27618661474142
0.03398345134925565 0.0002778701188377234 0.2725037021303242
0.03298881817664023 0.00021553281150427992 0.10781481145705463
0.03325722392566658 0.00028492979248736795 -0.05631390099072922
0.033530890324087105 -8.367814741172114e-05 -0.10707542105129138
0.03239926600076827 3.120970559362204e-05 0.1125191922211485
0.0332402730829872 0.0001875789361858559 0.06099098562586055
0.03291810822463192 -0.00013680161732907464 -0.1232407520006152
0.033616056622061914 -0.0007505721830552433 0.0759954052022598
0.03377374590631858 0.00018696491894372924 -0.0564692605801124
0.03260596370035906 0.00017229315459148006 0.11083471864577477
0.032548362473320505 -0.0002032596391851169 0.032146313045550254
0.03338919353266768 5.7357179380873504e-05 -0.3065850136118462
0.03327983609665164 7.810935928803642e-05 0.30742183016176516
0.033376788823538825 0.0003681019033077641 0.028945775945046815
0.03348616420855654 0.00011598402034650136 -0.18979504850326995
0.0331522456453325 -0.00024636926931578655 -0.3176820453079123
0.0332540380174177 0.00018519102742945063 0.317111066411046
0.03323044943814346 -0.000248595881977664 -0.1875059344992969
0.0331488236622314 0.00024876145163687564 -0.31745985656709447
0.033727168599553305 -0.0002206085210384326 0.18825117441729233
0.03338731974552459 -0.00019769957562626632 0.31601986547798655
0.033445196026463786 0.0002819485501404728 0.18559066402780391
0.0333932659836336 -9.815158809369355e-05 -0.07479687787871565
0.03342901836008434 -0.00020972967431128045 0.19130229811697155
0.033608288702008667 0.000624135514802186 -0.17783379205718783
0.033149726067971244 6.280593264538303e-05 0.0859116769654021
0.033387290388403185 -0.0001109667051824172 0.19182750300063642
0.033202428639475964 0.0003467867801908534 0.033486243163789176
0.033555106898608064 -0.00035004958733214007 -0.07836969855542301
0.03374496631526774 -0.0005599297904148647 -0.0026675213270903955
0.033394167767732 0.0010618020415660491 -0.3221508081274697
0.033346970853228707 -0.001036780245972189 0.32059352872757607
0.03339461661416823 -0.0010113142611482147 -0.3208653470754725
0.03346654047375284 0.0009768258846468768 0.32096553447812565
0.03295957556628062 -0.00023020135042572357 -0.05730118368038615
0.03368755412803548 -5.621952373190015e-05 -0.32860445232288865
0.03348283316477024 -0.00018384355479422886 0.32853304847323345
0.03347921616194169 0.0002161062330933495 -0.055922683248837556
0.03385512550441999 -0.00015473173572223343 -0.181659887958425
0.03384786590286789 2.375828459294727e-05 -0.23632870483578283
0.033694174462654304 -0.0001980028816823614 0.1795746423807666
0.033528256429461195 0.00043748040132106977 0.22933146509756874
0.03334550301829647 0.000291639897319209 -0.2322641949141694
0.03291573429130875 -0.00012825912017512214 -0.1776899069574268
0.033326644584337005 -0.000574089034200216 0.23005781226446867
0.03258478738628329 0.00045667577451169694 0.17370671668526452
0.03345152622698785 -0.00014335510281910874 -0.19902361239108762
0.03421905610813417 -0.0007888762494412306 0.05805085105073097
0.03315589947270347 0.00038868604505228 -0.09974504625043559
0.03313047732195125 0.0008673510686985722 0.07598316693948183
0.03316197378467244 -0.00014464336135464978 -0.14200020861576484
0.03369723582392342 -0.00032266484521474613 0.002880837385919968
0.033185704317866424 0.0007300025576088492 0.013063036285236349
0.03321878475107152 -0.0011445140811624033 0.1227831516346373
0.03367566768054255 -0.00013137068001343137 -0.12039671638823113
0.03377694369273261 -0.00020882875209146112 -0.34083562960690705
0.033552721521955736 0.000239691625274181 -0.11850067350514144
0.033701499618740645 8.037589438422535e-05 0.3408921999455202
0.03307747698890208 -0.00037135464530961283 0.1144475250404208
0.03380857165613612 -0.0001086112997142442 -0.33676388292593007
0.03385707341942499 0.00032586239299538174 0.33656458834360253
0.03291008053534748 0.0005811460103311559 0.1109692967430049
0.03326506002837783 -0.00014474103120691708 -0.3358470283002039
0.03377821317192092 0.0010229805804076123 -0.2605176276530837
0.03332313472561242 0.00021723531199825712 0.3349509490408904
0.033927796592794955 -0.0010488471352402922 -0.2591232377948741
0.03406903505657749 -0.0011103491685320337 0.2590051430073562
0.03325077600175533 0.0001812405327849809 -0.3352358961075048
0.03399691737951383 0.0010196683059181689 0.25871416975943295
0.033411534600410395 -0.00021166237555956678 0.33478587915014374
0.03372919342760842 -0.00020927056622872188 -0.12260116282283096
0.03240403556166913 -8.041797392906747e-05 0.11324757275394153
0.03362065316779478 0.0008473778610147078 -0.123721180343531
0.03333969954616319 0.00019469178763549142 0.15202624330865125
0.03287572940895358 -0.0007482197676773437 -0.05741198331989009
0.03409645582484685 -0.0007924943600116869 -0.2646560077442464
0.033720840675385444 0.0004955202589367019 0.2652927598471707
0.0333533342585697 0.0004807784699294301 -0.04953305048727226
0.0341685828422547 0.0007445119726418384 -0.24188226870225876
0.033791000561144674 -0.0005671039150367684 0.24912773863320525
0.03451346966050839 -0.00029837682878035125 0.054197537918105346
0.03395825727393468 -0.0007106605280281093 0.11681747363112112
0.03321564646808009 0.00011780752746025937 0.047518236283372726
0.03419198444553768 -0.0001418182440671965 -0.12140310259260405
0.03490306050294058 0.000625610710418652 -0.2221350793040941
0.03289008336612874 0.00016125628196103905 -0.04408472811480957
0.03418740055658181 -0.0012383308557032831 -0.05267493978252073
SCALARS Fourier_Temperature_[K] double 1
LOOKUP_TABLE default
0.45103274986940123
-0.4500439570831184
-0.4514399666118962
0.45003653969109103
0.38293086959899875
0.29086845371532094
0.1957662812999289
0.09459001676892805
-0.008124860358379457
-0.10445991267229249
-0.19756952386491575
-0.29093172516864535
-0.38227551396386
-0.4600377696829249
-0.4601464917471196
-0.4618998622341408
-0.4595737657457968
-0.45708909781868057
-0.46674194535905916
-0.4635392967045456
-0.46094279198029503
-0.46138276552449
-0.3840670802749652
-0.29227178957643213
-0.19854583589008504
-0.10510269403416321
-0.006290378665960506
0.09773727513545576
0.19748108836665137
0.2914156744473079
0.3822667418500026
0.46003004817844695
0.46052210426812584
0.46353773438059936
0.4667486796023099
0.45713305937974
0.45958405246967393
0.46185682125427796
0.46012623233327826
0.46069344646609434
-0.004286625140809027
-0.20051482775405513
-0.22032446519353352
0.1940576340158983
0.20591790130105897
-0.0066059237871271045
-0.2706927362851641
0.2870781692713487
-0.006738229160707865
-0.3310012952589401
0.32992527417743517
-0.3294564849097445
0.329209420903075
-0.15486956963005674
-0.35373405399581087
0.352396861957696
-0.1440752501558484
0.15077654762159579
-0.35138206093580465
0.3465338956623432
0.13678007431072778
-0.07233848240803349
-0.1382778310615063
0.14292761158544834
0.07631649770927339
-0.15778122706864714
0.09575955921651401
-0.07359172853026501
0.14106008353985403
0.04226401121748641
-0.39023795977716386
0.3909079892988382
0.036925040529444106
-0.2415459924986639
-0.4036051394458703
0.4031422411823048
-0.23843111131712189
-0.40267775239251197
0.2408548292814677
0.4019533548032769
0.23749770997822672
-0.09666002655201154
0.24375694511410462
-0.228402781051357
0.10823404966229035
0.24445230558283854
0.04099534724408721
-0.1002444646821517
-0.005233700367893793
-0.4098135107074618
0.40777255460240874
-0.4077816132361703
0.40876877661748784
-0.07223803352981767
-0.4177265867055571
0.4175448924095189
-0.06995663003272794
-0.2315057145242542
-0.30047794620684387
0.2296765909717449
0.29308099267472343
-0.2951504729316253
-0.22596090840224056
0.29287125267937614
0.22180391858080994
-0.2531481605561413
0.07475418538139765
-0.12692889856111805
0.0951411679127724
-0.18304785072141225
0.0028283395709255157
0.014998183966488226
0.15584769783249622
-0.15280621822122614
-0.4335895068645912
-0.14997660223136716
0.4335932735750857
0.1473903925210916
-0.4279262191264256
0.4278088926421189
0.1421364264361871
-0.42545357420316066
-0.33133338212040664
0.4242661956794258
-0.329197629289037
0.3294835154751765
-0.42404537901425776
0.3295538676140125
0.4244273136131974
-0.15660127929408182
0.14376014971342627
-0.15892124142253142
0.1941785678775516
-0.07404280388280532
-0.3366895929614805
0.3363265544273606
-0.06219428843486845
-0.30965384133474994
0.317178624105625
0.06773169013619523
0.14975182916209467
0.05886551735423303
-0.15570797247806767
-0.28299322657386883
-0.05583810417018546
-0.06728820520058759
VECTORS Fourier_Thermal_Flux_[W/m/m] double
0.1000015446849749 -2.5582895206432976e-07 0.0
0.09999949951271525 -8.316818021422701e-07 0.0
0.10000204542935731 -1.4536049578652704e-06 0.0
0.10000076515687811 -2.4195706386891114e-07 0.0
0.10000101296230547 2.2593392115521915e-08 0.0
0.10000009805849146 -4.6464433180644825e-08 0.0
0.10000022771903437 -4.269855365367688e-07 0.0
0.09999963335930155 -2.625060543173796e-07 0.0
0.0999989666713051 -9.637062605982738e-07 0.0
0.09999944874879564 -7.683402774872709e-07 0.0
0.10000002142673885 -1.8761543885553733e-06 0.0
0.09999982733627738 -2.3502152763539563e-06 0.0
0.09999928157147049 -1.1204106304338786e-06 0.0
0.09999901785810923 -1.404255776274281e-06 0.0
0.09999898226659225 6.097277057582942e-07 0.0
0.10000068820367032 3.286039403859719e-06 0.0
0.10000375382627107 2.2878034707379813e-06 0.0
0.10000246290415614 -2.1102084373295082e-08 0.0
0.100003043047536 -1.21652563801148e-06 0.0
0.10000265192566521 -9.4229416694111e-07 0.0
0.10000233291410125 -1.4162174071819893e-06 0.0
0.10000165477227192 -2.68580073085542e-06 0.0
0.10000231738642779 -1.7348068346254946e-06 0.0
0.10000081676319061 -2.8146397759009484e-06 0.0
0.09999864179974931 -2.452276039401994e-06 0.0
0.09999803267620289 -1.1848249676753297e-06 0.0
0.099999104923441 -2.6217796025041856e-07 0.0
0.09999957901611804 -4.293128449498843e-08 0.0
0.10000011095331511 1.7307789482399563e-07 0.0
0.1000001157281691 4.3957080418886387e-08 0.0
0.10000126367998315 6.176521699883623e-08 0.0
0.100000909615024 -4.089559049033284e-07 0.0
0.10000246046484468 2.7392453003788342e-08 0.0
0.10000275904918769 -9.950528048873614e-07 0.0
0.10000283492699931 -1.0774580982781414e-06 0.0
0.10000280184571404 -7.153739163487845e-08 0.0
0.10000191016506747 1.201853200515889e-06 0.0
0.10000084979791253 1.5810387336348541e-06 0.0
0.10000021826701566 3.2615028344093005e-07 0.0
0.10000042317031062 -1.945675765474842e-07 0.0
0.0999992928552303 1.3306412132102881e-06 0.0
0.09999973194911431 2.9301844988183684e-07 0.0
0.10000102907560819 1.1399043957198891e-06 0.0
0.09999786023122648 4.6299028863318786e-07 0.0
0.10000123440674762 1.0503257088782802e-06 0.0
0.09999681566492154 -3.6577774419347535e-06 0.0
0.09999631173564356 1.8171274133038056e-07 0.0
0.10000138769987689 -9.147589829326443e-07 0.0
0.09999920882040227 1.0479444582074397e-06 0.0
0.10000103629043558 -1.1250678039618597e-06 0.0
0.10000116070125722 2.1855209471765518e-07 0.0
0.0999993877423572 -1.099487827299826e-06 0.0
0.10000088314659943 1.6121810807396067e-07 0.0
0.09999795026121265 -2.420054347614998e-06 0.0
0.10000020829242069 -7.962714872607248e-07 0.0
0.10000296547206992 -9.595611515546508e-07 0.0
0.09999918414146029 -1.9068585593180552e-06 0.0
0.09999940350695542 1.05402877860382e-06 0.0
0.09999413742187561 7.362836720171933e-06 0.0
0.10000122526974115 9.466055676781113e-07 0.0
0.10000098158099414 -1.1018770523756282e-06 0.0
0.09999915464294667 1.1557816357826629e-06 0.0
0.09999974524291617 9.940366365503855e-07 0.0
0.09999596142279135 -1.1587573753357726e-06 0.0
0.09999869195616061 2.1035497799410177e-06 0.0
0.09999798786425132 1.8420907233431333e-06 0.0
0.09999327527945472 -1.7509363947589122e-06 0.0
0.09999906438754311 2.6948314124977e-06 0.0
0.09999972136630518 9.127498716744962e-07 0.0
0.09999796547087064 -9.268511465107998e-07 0.0
0.09999962066022929 2.0576161860687194e-06 0.0
0.10000183112577142 4.220630303586326e-08 0.0
0.09999931920354291 -1.7240778048511162e-06 0.0
0.1000003067118903 -2.4895084657888995e-06 0.0
0.10000165673910703 -1.154685179402537e-06 0.0
0.10000234589916955 -2.1189703872166237e-07 0.0
0.10000040701115344 -1.6636124829038903e-06 0.0
0.09999894107928464 2.9404523105407192e-06 0.0
0.10000062154437024 5.304924115146631e-07 0.0
0.10000074874090718 8.786205505937131e-07 0.0
0.1000007018253075 -3.8531850281589314e-07 0.0
0.09999827904247212 -4.087624710806735e-07 0.0
0.10000000834189318 -8.72053903059819e-07 0.0
0.0999989408653621 6.377270418667426e-06 0.0
0.10000134391609569 9.669889496006275e-07 0.0
0.10000111102455096 5.333802525660236e-07 0.0
0.09999831066473545 2.250206002917714e-06 0.0
0.09999915082710366 1.4919540574070272e-06 0.0
0.09999747423768862 6.134461208017611e-07 0.0
0.10000184513609243 -1.9675772947637857e-06 0.0
0.10000111241685732 -5.608448418431845e-07 0.0
0.09999931162722582 -1.3349355214993589e-06 0.0
0.1000008448881899 1.7491923370592925e-07 0.0
0.0999974006607276 -1.2678421405146218e-06 0.0
0.10000155549389778 -4.2463583862150864e-07 0.0
0.10000273730909141 -8.511046320316904e-07 0.0
0.09999837985791186 -1.4249352577458652e-06 0.0
0.10000000246564882 -6.703076248978099e-07 0.0
0.09999689515745602 -7.8030013329061e-08 0.0
0.10000123293100065 1.710221348669103e-06 0.0
0.10000124634749835 8.590981446685077e-07 0.0
0.1000005433602581 -4.955581014622762e-07 0.0
0.10000098027350751 -2.318338808799588e-06 0.0
0.10000284483859456 7.419334203587954e-07 0.0
0.10000129025662306 4.191969344686438e-08 0.0
0.09999881443413869 4.267560772358371e-07 0.0
0.09999578781078133 -2.989402397101e-06 0.0
0.09999926949338923 -1.1770077914877164e-06 0.0
0.0999985017137897 8.862286875821815e-07 0.0
0.09999597978523611 -5.119918836340824e-07 0.0
0.09999938150798333 -1.4475645934792249e-06 0.0
0.09999740511565364 5.904738653304213e-06 0.0
0.10000095721542786 1.2164651251422854e-06 0.0
0.0999981624463365 -2.907831087631263e-06 0.0
0.10000251019549859 -1.6288988308249194e-06 0.0
0.09999994453593798 -9.058439145864794e-07 0.0
0.10000270170921277 -1.0392286527374437e-06 0.0
0.10000000976518389 5.892808694972496e-07 0.0
0.10000338276045266 5.595089081244717e-06 0.0
0.10000121610639416 1.5583674678205234e-06 0.0
0.1000001300847205 -8.798491265747665e-07 0.0
0.10000188948190077 -1.8247000603474617e-06 0.0
0.1000014140069974 -2.2762050297695653e-06 0.0
0.10000179905107501 2.119501571992352e-07 0.0
0.09999959954621497 -2.0488923159200922e-06 0.0
0.10000065594856652 -4.478952461278718e-07 0.0
0.09999875201219074 -4.626794815732957e-07 0.0
0.10000064949209783 5.808478203597756e-07 0.0
0.10000036534943199 -3.141234831500507e-07 0.0
0.09999892879357766 9.696580600624989e-07 0.0
0.09999166496515717 8.684903941763578e-07 0.0
0.10000095766197714 2.3795281529372795e-06 0.0
0.09999981266674367 -7.709701075559716e-07 0.0
0.09999641408383009 -2.449856075616572e-06 0.0
0.09999842370867108 -3.430086335784455e-07 0.0
0.1000023036194875 -1.3891066323601375e-06 0.0
0.09999734978687272 -2.8457786665239422e-06 0.0
0.09999214059739236 7.163457355587651e-06 0.0
0.1000012060243807 -1.4928377116071867e-08 0.0
0.10000125973381611 -1.9644817305032765e-06 0.0
0.09999650707672873 1.5981356083216714e-07 0.0
0.09999911580461127 1.2613753085543438e-06 0.0
0.09999909317202847 -8.691563430314464e-07 0.0
0.09999460473549474 6.3517019974312914e-06 0.0
0.09999870317276378 3.6547373089123453e-06 0.0
0.10000109014675303 -1.5623775693821007e-06 0.0