# vtk DataFile Version 2.0
Really cool data
ASCII
DATASET UNSTRUCTURED_GRID
POINTS 378 float
0.0 1.4142 -1.4142
0.0 1.4142 1.4142
0.0 -1.4142 1.4142
0.0 -1.4142 -1.4142
20.0 1.4142 -1.4142
20.0 1.4142 1.4142
20.0 -1.4142 1.4142
20.0 -1.4142 -1.4142
0.0 1.4142 -0.4714
0.0 1.4142 0.4714
0.0 0.4714 1.4142
0.0 -0.4714 1.4142
0.0 -1.4142 0.4714
0.0 -1.4142 -0.4714
0.0 -0.4714 -1.4142
0.0 0.4714 -1.4142
20.0 1.4142 -0.4714
20.0 1.4142 0.4714
20.0 0.4714 1.4142
20.0 -0.4714 1.4142
20.0 -1.4142 0.4714
20.0 -1.4142 -0.4714
20.0 -0.4714 -1.4142
20.0 0.4714 -1.4142
1.0 1.4142 -1.4142
2.0 1.4142 -1.4142
3.0 1.4142 -1.4142
4.0 1.4142 -1.4142
5.0 1.4142 -1.4142
6.0 1.4142 -1.4142
7.0 1.4142 -1.4142
8.0 1.4142 -1.4142
9.0 1.4142 -1.4142
10.0 1.4142 -1.4142
11.0 1.4142 -1.4142
12.0 1.4142 -1.4142
13.0 1.4142 -1.4142
14.0 1.4142 -1.4142
15.0 1.4142 -1.4142
16.0 1.4142 -1.4142
17.0 1.4142 -1.4142
18.0 1.4142 -1.4142
19.0 1.4142 -1.4142
1.0 1.4142 1.4142
2.0 1.4142 1.4142
3.0 1.4142 1.4142
4.0 1.4142 1.4142
5.0 1.4142 1.4142
6.0 1.4142 1.4142
7.0 1.4142 1.4142
8.0 1.4142 1.4142
9.0 1.4142 1.4142
10.0 1.4142 1.4142
11.0 1.4142 1.4142
12.0 1.4142 1.4142
13.0 1.4142 1.4142
14.0 1.4142 1.4142
15.0 1.4142 1.4142
16.0 1.4142 1.4142
17.0 1.4142 1.4142
18.0 1.4142 1.4142
19.0 1.4142 1.4142
1.0 -1.4142 1.4142
2.0 -1.4142 1.4142
3.0 -1.4142 1.4142
4.0 -1.4142 1.4142
5.0 -1.4142 1.4142
6.0 -1.4142 1.4142
7.0 -1.4142 1.4142
8.0 -1.4142 1.4142
9.0 -1.4142 1.4142
10.0 -1.4142 1.4142
11.0 -1.4142 1.4142
12.0 -1.4142 1.4142
13.0 -1.4142 1.4142
14.0 -1.4142 1.4142
15.0 -1.4142 1.4142
16.0 -1.4142 1.4142
17.0 -1.4142 1.4142
18.0 -1.4142 1.4142
19.0 -1.4142 1.4142
1.0 -1.4142 -1.4142
2.0 -1.4142 -1.4142
3.0 -1.4142 -1.4142
4.0 -1.4142 -1.4142
5.0 -1.4142 -1.4142
6.0 -1.4142 -1.4142
7.0 -1.4142 -1.4142
8.0 -1.4142 -1.4142
9.0 -1.4142 -1.4142
10.0 -1.4142 -1.4142
11.0 -1.4142 -1.4142
12.0 -1.4142 -1.4142
13.0 -1.4142 -1.4142
14.0 -1.4142 -1.4142
15.0 -1.4142 -1.4142
16.0 -1.4142 -1.4142
17.0 -1.4142 -1.4142
18.0 -1.4142 -1.4142
19.0 -1.4142 -1.4142
0.0 0.0 0.0
0.0 0.5893 0.5893
0.0 -0.5893 0.5893
0.0 -0.5893 -0.5893
0.0 0.5893 -0.5893
0.0 0.926 0.0
0.0 0.0 0.926
0.0 -0.926 0.0
0.0 0.0 -0.926
20.0 0.0 0.0
20.0 0.5893 0.5893
20.0 -0.5893 0.5893
20.0 -0.5893 -0.5893
20.0 0.5893 -0.5893
20.0 0.926 0.0
20.0 0.0 0.926
20.0 -0.926 0.0
20.0 0.0 -0.926
1.3731 1.4142 0.0
18.5359 1.4142 -0.0288
6.5 1.4142 0.0
4.5525 1.4142 0.0186
8.3901 1.4142 0.0186
16.6191 1.4142 -0.0335
11.5694 1.4142 0.0186
13.4306 1.4142 0.0186
2.8525 1.4142 0.0
9.9167 1.4142 0.0
15.0833 1.4142 0.0
17.527 1.4142 0.4889
5.5 1.4142 -0.4419
7.4849 1.4142 -0.5175
12.5 1.4142 -0.517
5.5054 1.4142 0.5659
7.4767 1.4142 0.5582
12.5 1.4142 0.5535
3.623 1.4142 -0.547
3.618 1.4142 0.5453
17.5194 1.4142 -0.5627
14.2139 1.4142 -0.3965
14.2009 1.4142 0.4225
10.7861 1.4142 -0.3965
10.7991 1.4142 0.4225
9.1666 1.4142 -0.3893
9.1596 1.4142 0.4215
15.835 1.4142 -0.398
15.8422 1.4142 0.4113
2.1007 1.4142 0.4145
2.1005 1.4142 -0.4339
0.7247 1.4142 0.697
0.7247 1.4142 -0.697
19.2425 1.4142 0.671
19.2248 1.4142 -0.6587
6.5 1.4142 -0.7955
6.5 1.4142 0.7955
4.5251 1.4142 -0.77
4.5352 1.4142 0.7916
11.5 1.4142 -0.7955
11.5 1.4142 0.7955
13.5 1.4142 -0.7955
13.5 1.4142 0.7955
18.4611 1.4142 0.7919
18.456 1.4142 -0.8157
8.4481 1.4142 -0.772
8.4621 1.4142 0.7821
16.5379 1.4142 -0.7821
16.5977 1.4142 0.739
2.7553 1.4142 0.7399
2.7558 1.4142 -0.7421
1.4397 1.4142 -0.7919
1.4397 1.4142 0.788
0.5645 1.4142 0.0
19.4006 1.4142 -0.0033
10.0223 1.4142 -0.7033
10.0223 1.4142 0.7033
14.9777 1.4142 -0.7033
14.9777 1.4142 0.7033
1.3731 0.0 1.4142
18.5359 0.0288 1.4142
6.5 0.0 1.4142
4.5525 -0.0186 1.4142
8.3901 -0.0186 1.4142
16.6191 0.0335 1.4142
11.5694 -0.0186 1.4142
13.4306 -0.0186 1.4142
2.8525 0.0 1.4142
9.9167 0.0 1.4142
15.0833 0.0 1.4142
17.527 -0.4889 1.4142
5.5 0.4419 1.4142
7.4849 0.5175 1.4142
12.5 0.517 1.4142
5.5054 -0.5659 1.4142
7.4767 -0.5582 1.4142
12.5 -0.5535 1.4142
3.623 0.547 1.4142
3.618 -0.5453 1.4142
17.5194 0.5627 1.4142
14.2139 0.3965 1.4142
14.2009 -0.4225 1.4142
10.7861 0.3965 1.4142
10.7991 -0.4225 1.4142
9.1666 0.3893 1.4142
9.1596 -0.4215 1.4142
15.835 0.398 1.4142
15.8422 -0.4113 1.4142
2.1007 -0.4145 1.4142
2.1005 0.4339 1.4142
0.7247 -0.697 1.4142
0.7247 0.697 1.4142
19.2425 -0.671 1.4142
19.2248 0.6587 1.4142
6.5 0.7955 1.4142
6.5 -0.7955 1.4142
4.5251 0.77 1.4142
4.5352 -0.7916 1.4142
11.5 0.7955 1.4142
11.5 -0.7955 1.4142
13.5 0.7955 1.4142
13.5 -0.7955 1.4142
18.4611 -0.7919 1.4142
18.456 0.8157 1.4142
8.4481 0.772 1.4142
8.4621 -0.7821 1.4142
16.5379 0.7821 1.4142
16.5977 -0.739 1.4142
2.7553 -0.7399 1.4142
2.7558 0.7421 1.4142
1.4397 0.7919 1.4142
1.4397 -0.788 1.4142
0.5645 0.0 1.4142
19.4006 0.0033 1.4142
10.0223 0.7033 1.4142
10.0223 -0.7033 1.4142
14.9777 0.7033 1.4142
14.9777 -0.7033 1.4142
1.3731 -1.4142 0.0
18.5359 -1.4142 0.0288
6.5 -1.4142 0.0
4.5525 -1.4142 -0.0186
8.3901 -1.4142 -0.0186
16.5066 -1.4142 0.0107
11.4596 -1.4142 0.0
14.5694 -1.4142 -0.0186
2.8525 -1.4142 0.0
9.9167 -1.4142 0.0
12.9167 -1.4142 0.0
17.5116 -1.4142 -0.4926
5.5 -1.4142 0.4419
7.4849 -1.4142 0.5175
15.5028 -1.4142 0.4704
5.5054 -1.4142 -0.5659
7.4767 -1.4142 -0.5582
15.508 -1.4142 -0.5619
3.623 -1.4142 0.547
3.618 -1.4142 -0.5453
17.4957 -1.4142 0.5608
13.7861 -1.4142 0.3965
13.7991 -1.4142 -0.4225
10.7615 -1.4142 0.3973
10.7704 -1.4142 -0.417
9.1666 -1.4142 0.3893
9.1596 -1.4142 -0.4215
12.1782 -1.4142 0.3924
12.1731 -1.4142 -0.4179
2.1007 -1.4142 -0.4145
2.1005 -1.4142 0.4339
0.7247 -1.4142 -0.697
0.7247 -1.4142 0.697
19.2425 -1.4142 -0.671
19.2248 -1.4142 0.6587
6.5 -1.4142 0.7955
6.5 -1.4142 -0.7955
4.5251 -1.4142 0.77
4.5352 -1.4142 -0.7916
16.5 -1.4142 0.7955
16.5 -1.4142 -0.7955
14.5261 -1.4142 0.7736
14.5 -1.4142 -0.7955
18.458 -1.4142 -0.7926
18.4513 -1.4142 0.8153
8.4481 -1.4142 0.772
8.4621 -1.4142 -0.7821
11.4667 -1.4142 0.7669
11.4621 -1.4142 -0.7821
2.7553 -1.4142 -0.7399
2.7558 -1.4142 0.7421
1.4397 -1.4142 0.7919
1.4397 -1.4142 -0.788
0.5645 -1.4142 0.0
19.4006 -1.4142 0.0033
10.0223 -1.4142 0.7033
10.0223 -1.4142 -0.7033
13.0223 -1.4142 0.7033
13.0223 -1.4142 -0.7033
1.3731 0.0 -1.4142
18.5359 -0.0288 -1.4142
6.5 0.0 -1.4142
4.5525 -0.0186 -1.4142
8.3901 -0.0186 -1.4142
16.6191 -0.0335 -1.4142
11.5694 -0.0186 -1.4142
13.4306 -0.0186 -1.4142
2.8525 0.0 -1.4142
9.9167 0.0 -1.4142
15.0833 0.0 -1.4142
17.527 0.4889 -1.4142
5.5 0.4419 -1.4142
7.4849 0.5175 -1.4142
12.5 0.517 -1.4142
5.5054 -0.5659 -1.4142
7.4767 -0.5582 -1.4142
12.5 -0.5535 -1.4142
3.623 0.547 -1.4142
3.618 -0.5453 -1.4142
17.5194 -0.5627 -1.4142
14.2139 0.3965 -1.4142
14.2009 -0.4225 -1.4142
10.7861 0.3965 -1.4142
10.7991 -0.4225 -1.4142
9.1666 0.3893 -1.4142
9.1596 -0.4215 -1.4142
15.835 0.3868 -1.4142
15.8422 -0.4244 -1.4142
2.1007 0.4145 -1.4142
2.1005 -0.4339 -1.4142
0.7247 0.697 -1.4142
0.7247 -0.697 -1.4142
19.2425 0.671 -1.4142
19.2248 -0.6587 -1.4142
6.5 0.7955 -1.4142
6.5 -0.7955 -1.4142
4.5251 0.77 -1.4142
4.5352 -0.7916 -1.4142
11.5 0.7955 -1.4142
11.5 -0.7955 -1.4142
13.5 0.7955 -1.4142
13.5 -0.7955 -1.4142
18.4611 0.7919 -1.4142
18.456 -0.8157 -1.4142
8.4481 0.772 -1.4142
8.4621 -0.7821 -1.4142
16.5796 0.7478 -1.4142
16.5961 -0.7698 -1.4142
2.7558 0.7401 -1.4142
2.7553 -0.7419 -1.4142
1.4397 -0.7919 -1.4142
1.4397 0.788 -1.4142
0.5645 0.0 -1.4142
19.4006 -0.0033 -1.4142
10.0223 0.7033 -1.4142
10.0223 -0.7033 -1.4142
14.9777 0.7033 -1.4142
14.9777 -0.7033 -1.4142
2.3624 0.0 0.0
10.4325 0.0 0.0
15.5637 0.0015 0.0015
11.9321 -0.0441 -0.0112
3.9059 -0.0004 -0.001
8.9614 -0.0143 -0.0143
14.0442 -0.0104 0.0
17.2007 0.0 0.0
5.9023 0.0 0.0
7.4553 0.0 0.0
18.6003 0.0166 0.0159
1.1812 -0.2268 0.2268
1.5552 0.4515 -0.4494
12.9802 0.3571 0.3496
4.9256 -0.4137 -0.4137
1.7212 -0.5227 -0.5244
1.7214 0.523 0.5247
4.9321 0.4199 0.4138
11.1721 -0.4927 0.4788
11.2049 -0.4952 -0.5123
3.1346 0.4141 0.5244
3.1337 -0.4142 -0.5247
16.383 0.4454 0.4492
16.3813 -0.4428 -0.4546
CELLS 1077 5385
4 108 348 365 366
4 105 171 365 366
4 142 158 357 372
4 142 158 216 372
4 142 355 357 372
4 246 294 357 367
4 142 200 216 372
4 294 302 360 367
4 141 355 357 373
4 141 157 357 373
4 294 302 312 367
4 141 157 334 373
4 246 294 360 367
4 141 318 334 373
4 164 222 359 363
4 163 340 359 363
4 348 365 366 369
4 142 200 355 372
4 294 312 357 367
4 223 281 359 363
4 171 365 366 370
4 158 216 357 372
4 141 318 355 373
4 282 341 359 363
4 157 334 357 373
4 309 312 357 367
4 165 322 342 377
4 302 309 312 367
4 279 315 339 364
4 243 277 356 360
4 205 225 275 376
4 188 220 280 364
4 138 162 338 364
4 145 165 376 377
4 272 331 362 363
4 145 165 322 377
4 122 164 359 363
4 100 108 365 366
4 100 105 365 366
4 205 275 356 376
4 181 222 359 363
4 286 354 374 375
4 181 223 359 363
4 168 354 374 375
4 244 286 354 375
4 126 168 354 374
4 161 197 221 364
4 246 263 357 367
4 145 356 376 377
4 122 163 359 363
4 299 340 359 363
4 240 281 359 363
4 299 341 359 363
4 240 282 359 363
4 213 271 362 363
4 154 212 362 363
4 145 322 356 377
4 275 356 376 377
4 229 266 287 365
4 295 348 366 369
4 118 171 366 370
4 294 302 337 360
4 165 342 376 377
4 124 142 158 357
4 124 142 355 357
4 254 286 374 375
4 136 168 374 375
4 155 307 332 371
4 225 275 376 377
4 153 330 362 363
4 244 254 286 375
4 126 136 168 374
4 226 286 354 374
4 168 344 354 375
4 168 313 344 375
4 196 226 286 374
4 235 277 356 360
4 245 291 355 359
4 127 174 355 359
4 186 232 355 359
4 192 215 273 368
4 124 141 355 357
4 194 263 357 367
4 165 342 361 376
4 225 361 376 377
4 132 159 336 367
4 124 141 157 357
4 103 348 365 369
4 245 292 355 359
4 101 105 171 365
4 103 108 348 365
4 163 308 340 363
4 127 173 355 359
4 186 233 355 359
4 247 279 315 364
4 101 171 365 370
4 130 155 307 371
4 159 336 360 367
4 304 350 355 359
4 302 309 336 367
4 243 353 356 360
4 307 332 368 371
4 225 275 361 377
4 302 336 360 367
4 243 278 353 360
4 144 202 232 359
4 134 164 222 363
4 193 223 281 363
4 138 306 338 364
4 215 273 358 368
4 127 144 174 359
4 252 282 341 363
4 342 361 376 377
4 304 351 355 359
4 188 256 280 364
[...]
POINT_DATA 378
SCALARS Fourier_Temperature_[K] double 1
LOOKUP_TABLE default
0.483036170996
0.48312037996
0.483457790676
0.483139336167
-0.483121374407
-0.482973244139
-0.482758100199
-0.482943123865
0.489328901865
0.48933192322
0.489618994123
0.489801520454
0.489791016571
0.489612001631
0.489330695336
0.489316785676
-0.489585014382
-0.489702632114
-0.489378363904
-0.489429002986
-0.489305986919
-0.489561720611
-0.4895733116
-0.489779240759
0.447504078699
0.39742695772
0.344378323968
0.29808478329
0.250226658985
0.200385629342
0.150354896982
0.102058536899
0.0442456500021
0.000893971209727
-0.041820228866
-0.0997332534502
-0.149181097349
-0.207215630766
-0.249259663836
-0.292955630307
-0.351765178969
-0.40020310116
-0.445578016987
0.447621152672
0.400690756977
0.344541746449
0.297478067732
0.250120038392
0.199730737593
0.150297500687
0.101938114446
0.0441047080352
0.000810702614598
-0.0419800960004
-0.0996430921525
-0.149477902725
-0.207395622725
-0.249429158201
-0.297035396686
-0.351495377293
-0.399818069135
-0.44535936365
0.447685359222
0.39736954704
0.344412732128
0.298163688846
0.250263526126
0.200396189274
0.15039342741
0.101896929847
0.0438575868972
-0.000308387841
-0.045106804723
-0.103375088211
-0.14996563889
-0.200104726683
-0.250328550665
-0.296977362089
-0.351903156195
-0.399791385446
-0.445037687532
0.447581056209
0.400629167067
0.344621234767
0.297492949225
0.250165366862
0.199739970248
0.150338917583
0.101804151074
0.044054221918
0.000500737465948
-0.0448180728251
-0.102967197803
-0.149945510139
-0.200034410282
-0.249724471214
-0.296494299459
-0.351227395107
-0.400013209535
-0.445494921355
0.48005366347
0.477488880078
0.481978893301
0.477501887591
0.479152519163
0.480680544108
0.485346582907
0.485340263825
0.480677836947
-0.483037650009
-0.480371519783
-0.480242238066
-0.480414603857
-0.480495159865
-0.484402230748
-0.484212139766
-0.484250303855
-0.484444024272
0.429305117675
-0.428363417145
0.172287423131
0.274463281919
0.0843057441636
-0.334398964291
-0.0749356644212
-0.171846693327
0.360226354116
0.00662527125057
-0.247517780576
-0.374893436304
0.225967597722
0.126731316959
-0.129070429983
0.220901182968
0.12670217831
-0.119408785071
0.318658091713
0.310456535687
-0.380278136761
-0.204959218163
-0.204072573802
-0.0429244027703
-0.042989032204
0.0438413137715
0.0437787632184
-0.292045438401
-0.297106167086
0.390130452377
0.401985391922
0.46227499332
0.467233883424
-0.467372462129
-0.463006179389
0.173458385456
0.172977256377
0.269120132045
0.270385437673
-0.082107253045
-0.0768746210598
-0.173438091557
-0.172766367835
-0.423283665393
-0.424027684409
0.0876532025361
0.0820837116092
-0.325584702288
-0.333925674828
0.36575254337
0.361026342783
0.432485793561
0.426572922363
0.465581919875
-0.473450394245
0.00413089363524
0.00403857245958
-0.242631846529
-0.248903006315
0.43226654562
-0.428282203874
0.172287087438
0.274555117556
0.084232041002
-0.334482766858
-0.0781787144773
-0.171924824075
0.360199915442
0.00675972526014
-0.247958617688
-0.384891711398
0.225844584511
0.126738925044
-0.124156199643
0.227872625772
0.126694298622
-0.119636518167
0.314381603632
0.320439490946
-0.375013914749
-0.206647341885
-0.208183106547
-0.0389545895184
-0.035733286451
0.0442602903129
0.0437319380033
-0.289379939642
-0.295653897038
0.397883884664
0.391315474941
0.465574591067
0.464571181855
-0.467197055152
-0.462831316851
0.173303034431
0.173110762801
0.276384896977
0.272559963339
-0.0772620854977
-0.0774822024708
-0.177622906345
-0.173060689831
-0.42294888711
-0.423808904387
0.0823222056473
0.0820224026793
-0.323723193832
-0.335627499438
0.36306692884
0.37022134749
0.430839274556
0.425939500229
0.475451259319
-0.47327641478
0.00377946595175
-0.00543904914231
-0.243703286322
-0.248850237767
0.432222067947
-0.419423331537
0.172277880652
0.274726609794
0.0841069311167
-0.330125228212
-0.0715678540444
-0.234348043267
0.360194122931
0.00688562138938
-0.148931949552
-0.369332644931
0.226051601953
0.126714359057
-0.279662182327
0.220961967393
0.126627997793
-0.278774539897
0.322798734083
0.314482514037
-0.378407731181
-0.192911418905
-0.192631455185
-0.0353460690422
-0.0374752998493
0.0441542741661
0.0399917200882
-0.104582739095
-0.0990155541681
0.389919842207
0.403781545942
0.461241133646
0.46961154359
-0.463576366509
-0.462739027116
0.173471436145
0.172981057304
0.274797119074
0.276403637894
-0.320219827597
-0.320306874397
-0.230345682794
-0.219264962118
-0.42281963289
-0.418468175571
0.0822496133788
0.0766219733456
-0.0706535803312
-0.0706892500041
0.365768985257
0.360981121634
0.435035513288
0.425979977803
0.47544539567
-0.47334078438
-0.000440148329558
-0.00140865305059
-0.154714885115
-0.151309101139
0.429266403089
-0.419756341021
0.172285077559
0.274649698728
0.084321943852
-0.334538642705
-0.0782146911286
-0.169876242856
0.360303857552
0.00714420436168
-0.247989930787
-0.380470377039
0.227908065453
0.126689527441
-0.119136144783
0.225835034238
0.126733664444
-0.119197653229
0.324762167425
0.310583291596
-0.379038780452
-0.212734049472
-0.208426356898
-0.0389772312796
-0.0387216162264
0.0444828360828
0.0481328873597
-0.297057074488
-0.295122623663
0.396401174616
0.391535985607
0.463185216194
0.466353921318
-0.467531108809
-0.463225355902
0.173101510212
0.17330696511
0.276882012639
0.270457932698
-0.0721285650037
-0.0774353538469
-0.172772913977
-0.181193456517
-0.423576982016
-0.429016986418
0.077057807954
0.087333794304
-0.335568912188
-0.333483206797
0.363128166553
0.370276461218
0.431100058243
0.423408576815
0.465578428631
-0.473528527482
0.00394191564894
-0.000718845498739
-0.253285587794
-0.246690092911
0.382666920105
-0.0194175785318
-0.27034195751
-0.0941128861458
0.299026172657
0.0451675250998
-0.205619705251
-0.36055211617
0.198406366281
0.127239335416
-0.439055882304
0.452265499041
0.440059390198
-0.152828130449
0.259254317652
0.416469935058
0.416493099041
0.258072395022
-0.0579565918744
-0.0589565967755
0.350305034179
0.350347452918
-0.321659746255
-0.319671583871
VECTORS Thermal_Flux_[W/m/m] double
1.44057155815 -0.0331290679151 0.0472398222985
1.44401637486 -0.043547752842 -0.034607316894
1.44065476542 0.0311502658991 -0.0459800287618
1.44204606344 0.0489404530848 0.0292583102283
1.44463441089 0.0509314077996 -0.025283083183
1.4466681497 0.0263347568149 0.0495525756365
1.44187145342 -0.0504383803853 0.0230158452193
1.44544609579 -0.034663211529 -0.0326053480985
1.43058300302 -0.323433355428 0.0553161835353
1.43331101162 -0.322476733812 -0.0566206915815
1.42455419351 -0.0445390636701 -0.32466499077
1.4183385672 0.0547593607206 -0.320939058186
1.4169647562 0.320657732854 -0.0553082128095
1.42337191228 0.323943177813 0.044985296078
1.43195984505 0.0575643459711 0.321444642771
1.42890125795 -0.0552326657313 0.322952393706
1.417956353 0.337981310269 -0.0575967690152
1.41913233624 0.333958131908 0.0529660133141
1.41211386033 0.0601732421434 0.336014527935
1.40730223801 -0.0526393831235 0.333413646448
1.40631653374 -0.336386508594 0.0525018051055
1.4102451307 -0.331414404699 -0.0579631014675
1.41778570648 -0.0522771817561 -0.336978159388
1.41571189202 0.0557288785143 -0.333354946526
1.41811905936 -0.0805747906436 -0.114209234363
1.42822884472 -0.128844134642 -0.154735087304
1.45077553047 0.0957925972049 0.0734879975979
1.4230739854 0.124789460573 0.0997890040364
1.43933366181 0.138153080578 0.092736173949
1.44936841966 -0.122307045646 -0.1089576609
1.42405306604 0.110551772417 0.121007513917
1.41448538509 -0.117758509436 -0.117725785861
1.38139724992 0.0896873840802 -0.000799850836226
1.50905329664 0.0121052714994 0.00632697293549
1.42761233301 -0.09392563884 0.013531677189
1.41546780793 0.127589804392 0.113390045987
1.43340822054 0.128034728724 0.11067897429
1.43010919345 -0.118757968055 -0.202907646314
1.52288844583 -0.214762502695 -0.190495168737
1.42604063802 -0.199701682987 -0.12002486368
1.44417550332 -0.0974094699027 -0.108178248399
1.43300478285 0.101652178237 0.122416549464
1.4432736931 -0.128139409645 -0.0746736033259
1.4125849181 0.0890306317671 -0.0924669587499
1.44701868281 0.00651696945191 -0.0628775296965
1.50277444733 0.00635149775547 0.001103497636
1.42438973974 0.0936490864345 -0.1305949671
1.4881325608 -0.0155234710504 -0.0134997857918
1.42784735657 0.125561590981 -0.100037112293
1.419065019 -0.118437315144 0.107154896862
1.41538402889 0.108409451214 -0.110880505323
1.37799389544 0.083023933055 0.00702050907443
1.50485407866 0.0128339473216 -0.0050699078523
1.424675878 -0.0970029206915 -0.0110407543344
1.41316198231 -0.12090397571 0.11777910493
1.49706299921 -0.0117948055899 -0.0114132705229
1.38498656299 0.0878129730366 0.0406245020197
1.50927663735 0.196777738315 -0.198949124962
1.46046210321 0.0869793757969 -0.120274848295
1.42769279245 0.116584686806 -0.0774406168478
1.4399759343 -0.128156938548 0.0968538834132
1.44621248185 0.0753494615051 -0.127564876708
1.43116676414 0.0797861225977 0.118375608853
1.43309246713 0.128588984859 0.156251678285
1.44721387327 -0.103642375119 -0.0793196675507
1.42195279389 0.0915701685843 0.12121173375
1.43692436972 -0.143507285446 -0.0953044045838
1.45042526099 0.121914495877 0.10957740244
1.42647823235 -0.107109199794 -0.119218982149
1.41769398231 0.111165689 0.108295485464
1.39310605888 -0.0119344714064 0.0900128910149
1.55896610027 0.00896803932172 0.0109425865236
1.42668766092 -0.0218013103302 -0.105975820334
1.43114223369 0.102238683471 0.132923700766
1.29201819589 -0.012560568252 -0.00316137829336
1.39515763356 -0.146679963745 -0.147883382273
1.29693947657 0.00120419904834 -0.0122699391002
1.4122367574 0.0906871527571 0.0875475299624
1.43664798936 0.0563239650203 0.0891775848063
1.35028805172 -0.0941523366196 -0.127053182646
1.44807936401 0.136030626267 0.0600228206325
1.41822332284 -0.0954318641595 0.0975420795742
1.44465377425 -0.0219940432678 0.0786968288205
1.50161358858 -0.00847575598034 0.000628704749701
1.42277964248 0.13509372841 -0.0962735043269
1.4904684154 0.0198349255512 0.0164625789521
1.43435962883 -0.13316611161 0.108804234024
1.42300289104 0.123313971893 -0.110162027454
1.4195757883 -0.12294673016 0.122428316758
1.41761984504 -0.219469775433 0.119363934587
1.54885177744 -0.0189583791645 -0.0044504687951
1.44442441607 0.0829850561853 -0.0437403149705
1.42770999057 0.0970578405326 -0.135613351344
1.30942525605 -0.0141242445985 -0.00720834675325
1.2734299615 -0.0236216681744 0.0278395804064
1.28274617381 0.0112374761923 0.0120860182757
1.41262396872 0.102891479655 -0.0946772995245
1.43090109206 0.0566384820644 -0.109336435534
1.44132570382 0.119133685181 -0.11555683004
1.37824660917 0.10650272497 -0.0934800834024
1.48862692794 0.00825524967669 -0.00810129349918
1.48090394248 -0.00870555189791 -0.0294243769992
1.47602482047 0.0339463997164 -0.034001304411
1.4785958171 0.0305875708025 0.010705133092
1.48188950276 -0.0263112453647 0.0259894505766
1.45499488001 -0.137910213178 -0.000912410361081
1.45289216202 0.00875999670635 -0.169980807902
1.45180615316 0.169528681274 -0.00869108779044
1.45440132487 0.00215976115282 0.137318420413
1.49278097152 0.00295458193639 -0.00471358617107
1.48867801792 0.0291578595503 0.02612908681
1.48135022188 -0.0261476881478 0.023683569144
1.48578784469 -0.0242800358755 -0.0301270156078
1.48712820698 0.0289869990077 -0.0291152758963
1.45918422228 0.169640091981 -0.00212347136764
1.4514078204 0.00382464432538 0.166666493769
1.44927749086 -0.16633357493 -0.00424121223039
1.45649803051 0.00150146605869 -0.169444806247
1.3758586924 0.243246135303 0.00535787549315
1.3931785423 0.0233055430964 -0.00431151041983
1.4127354715 0.105444770259 -0.00760459264017
1.43709134507 0.0155936624288 0.0112056288985
1.40847203227 -0.0810711221567 0.0196869853759
1.43793307617 0.0215416437602 -0.00991387728465
1.42249425171 0.0129264139117 0.00161401523057
1.41986092474 -0.0445825101825 0.0200334838645
1.45215331823 0.0267329442626 -0.0158527711775
1.3598765491 -0.153060058964 0.00141255655663
1.41132020778 -0.130887476965 0.00996446981426
1.43752610555 0.0395436953549 0.0136832158962
1.46266992034 -0.0222719183072 0.00636304306772
1.40048210902 -0.00671063946693 0.00185522494253
1.45519851188 0.0571295152239 0.0550681984942
1.45885591742 0.0179269355393 -0.0291697394859
1.39784573397 -0.00357263963947 -0.00187003052999
1.4629828977 -0.0549301065262 0.0278788433145
1.46632851827 0.0276900550135 0.0475111314744
1.46687632637 0.0588997334701 -0.0235852060032
1.44583419567 0.0739534471585 -0.0100976870333
1.43921930413 -0.115212173296 -0.0260349396463
1.40360446215 -0.101730030035 0.00713398572339
1.44904824816 -0.000520721235838 -0.0130107180906
1.44880822358 -0.00360632946187 0.0209299801497
1.3971354631 -0.0432966216884 0.0101002538257
1.39698526933 -0.0453352894012 -0.00769666560294
1.46525654494 -0.0188291398889 -0.0460276022234
1.49237726949 0.0729493022596 -0.030780058421
1.46234352535 0.0506538403724 -0.0356858464872
1.48684481666 -0.0647722863549 -0.0294743510353
1.42203706091 0.0645184142568 -0.0450670879254
1.42500091788 -0.00778603781037 0.0134433130545
1.46004012291 0.0345789868284 -0.0207850423619
1.45621667599 -0.0127962924382 -0.0205323842717
1.45100288872 0.0131816655373 -0.00203620400981
1.43001611037 0.0280227857727 0.00136277720766
1.46671425679 0.0479306053321 0.0454142678277
1.43416443971 0.095714128964 -0.0418534120465
1.44878930918 0.11093655457 0.0239301197175
1.447118235 0.0459559576251 0.0440539220303
1.46282852338 0.0230491866956 0.0114252619206
1.44702195796 -0.112371982067 0.034809487726
1.46565308994 0.010469455418 -0.00434969520309
1.46094430137 0.0241244278044 -0.0110579741139
1.43598075196 -0.0842379523624 -0.0345158129764
1.42868798791 -0.035665447947 -0.00355031384545
1.48641015581 -0.0170521506129 -0.0435097795971
1.46493133053 0.057895197953 -0.0635560231818
1.4301415373 0.0867412677164 -0.0483139062205
1.48328100434 -0.00713434432045 -0.000764435918109
1.43178080017 -0.0412291120108 -0.0804220674164
1.44807970259 0.125844844436 0.00964370895292
1.4146926948 -0.0106072829652 -0.00179868641309
1.43417211221 0.0662469176162 -0.00232938894554
1.38195820474 -0.0305204318727 0.00432775704866
1.38049329445 -0.0327660342918 -0.00144620394941
1.42080630037 -0.122512821656 -0.0764946533373
1.42113278767 0.0565971188108 -0.0883025272531
1.41607843245 0.00701224632476 0.0782529380065
1.39454628499 0.000629345292513 0.0259540295227
1.41253109258 0.012492087937 0.105380351085
1.43526886603 0.00108282503618 0.0158777205217
1.41237352158 -0.0100566624884 -0.0865045271582
1.45287044633 -0.026738957395 0.0229043530892
1.45082408887 -0.00178670592771 -0.0836327282702
1.44121533304 0.0177860380492 -0.043254053251
1.43299278178 -0.0207575636132 0.0283893093522
1.38901221642 -0.0217479285549 -0.155131714651
1.38293534044 -0.0089650117117 -0.134740865766
1.44212856378 -0.00288135626418 0.0601935955867
1.46632823266 0.0202714186618 -0.0443061091837
1.39911880863 0.000867792325209 -0.00830501642344
1.47721376828 -0.0214175689637 0.00110141601835
1.46738894 -0.00197153433098 -0.0185942760142
1.40052588688 0.00261130499865 -0.00429310338667
1.46429504403 0.0291663179178 -0.00636371316025
1.46803254373 0.0171879958802 0.0127672414224
1.46276165481 -0.00207988602862 -0.0302408163418
1.45069098056 0.00179568650757 0.0334740690269
1.42604281339 -0.00061070876368 -0.11615121481
1.44616403293 -0.00156719384202 -0.0658454483035
1.47916619921 0.00657675307835 0.00763898383077
1.37984339513 -0.0206303436879 -0.0619500917473
1.4243850058 -0.022445844728 -0.0731760655021
1.396392687 -0.000124968091008 -0.0420633412087
1.44434939223 0.032286911164 0.0163965567845
1.47444434138 -0.0016016985813 0.0552401252567
1.46727169438 0.0381615927799 0.00479729778596
1.47042515899 -0.019458306518 0.0168184829074
1.4469915584 0.028607708542 -0.00200539523327
1.43986069831 0.00430187788612 -0.0284297994847
1.45436731858 0.0217832787296 0.0326985596044
1.45653328061 0.0200287040213 -0.0130543216506
1.44259442383 0.0076428143099 0.0185708526457
1.43744436352 0.00448437905407 0.0267073807254
1.43779971991 0.0282838803752 -0.0182061781322
1.47062020092 -0.000655896822129 -0.020800453445
1.4745387587 -0.0054214251628 0.0103942218386
1.46682399629 0.0156877698184 -0.0192753126144
1.45148777433 -0.0245234511838 -0.0317645498517
1.45974673236 -0.0426420011034 -0.0335719714603
1.43913819295 0.0129616231536 0.00624405445834
1.46412048607 0.00709151859107 0.0248037585995
1.44415665331 -0.0118603641079 -0.025574715772
1.4297310326 0.00316741494849 -0.0358392663942
1.47788606244 0.0575550727633 -0.0574463174886
1.47981801269 0.0223714473461 0.0687635851726
1.46677385121 0.0100252499677 0.00675770374257
1.43768261651 0.00607155230985 0.0109541744546
1.42774360323 0.0144202943629 -0.0012159165851
1.44835119522 0.0580129482972 0.0393795307414
1.44139286904 0.0135698051453 -0.0878404322783
1.42873418636 0.00333893577462 0.0638316614866
1.42315391969 -0.00745728697583 -0.0241268282509
1.34948249396 -0.0227572425235 -0.0375378004528
1.38756677807 0.0815929402788 -0.114100626755
1.4177341466 -0.00299002821321 -0.0340960457115
1.42488149083 -0.0752949376856 -0.0209134804251
1.42392991164 0.0941769740764 -0.000664782639568
1.4136575323 -0.105439432326 0.00743409418963
1.44672507176 -0.0144556879942 -0.00942578031328
1.42070329862 0.0900465442547 -0.018986204853
1.43224448852 -0.084454300125 0.0340863097116
1.44883221367 0.0690427051721 -0.000158596613441
1.47384616587 -0.0418090185787 0.0158295009223
1.44558269318 -0.0270112388838 0.0173919716774
1.39019875203 0.147311050104 -0.0192852430302
1.35205068805 -0.0854948917597 0.00126424601357
1.46000967172 0.0678860285389 -0.0541231242152
1.46374842638 0.0227368156037 -0.00803128886834
1.40169852302 0.00859934688341 -0.000468173942469
1.4464246602 -0.0616754437135 0.0444987904032
1.46266662892 -0.0177466141777 0.0316471141179
1.39975303901 0.00327689317392 0.00221913476058
1.45504806122 -0.0266868459947 -0.0244297201465
1.47045418528 0.0214875995076 -0.00999231472682
1.46770304889 -0.0121181730665 -0.0185253660899
1.42852136546 -0.0198392493308 0.0104269647
1.43727026473 -0.08674027033 -0.0105644206428
1.41326279844 -0.0335764751308 -0.0512346312121
1.40390850804 -0.0690399256736 -0.0292376214417
1.44677670922 0.00681717242048 -0.0221570508815
1.42222567423 0.0703585318435 -0.0206607888365
1.39615259318 -0.0104600148665 0.0481062897141
1.48125525253 0.0586695527557 0.0109082438887
1.43258540346 0.112698976259 -0.0321797207186
1.45088708194 -0.0574206181038 0.0414080047274
1.47722130992 0.0771632601648 0.0232457573497
1.44278705093 -0.0174410293209 0.0246749502593
1.44602558121 0.0569539277166 0.00762357913446
1.44003052156 0.0164887143716 -0.0252235867031
1.45309376805 0.0130241586973 0.0126011424392
1.45191571817 -0.0122298677489 0.00258812274802
1.43283100295 -0.0287076691506 0.000150105077389
1.46682189583 0.00798062955471 0.000330693254525
1.43876269046 0.0240671291716 -0.0308207655359
1.48633433884 -0.00993840625979 0.037465057776
1.46804304104 0.0500357510616 -0.0460951391809
1.44375293169 -0.0742371354874 -0.0330446772627
1.41942872942 0.0466744661108 -0.0220524872306
1.45541641963 0.0820416700817 -0.0430864964791
1.44568276262 -0.0278469621658 0.0207326914661
1.44620441785 0.0242564729236 -0.0119985774352
1.45029915432 -0.0312974095561 0.0467600109132
1.4500345677 0.0692327392397 0.0392628429575
1.45017651404 0.0510248087681 -0.0376307916887
1.42796485122 -0.08744266784 0.0499682175592
1.48024186923 0.00765906466113 0.00128951094687
1.44472970536 0.114384445869 0.0691417200357
1.43338296227 -0.0951668267747 0.0473294446454
1.44094674266 0.0874231419195 -0.0143883155582
1.42608608551 -0.0653931381003 -0.00411589316781
1.37518901525 0.0106170329561 -0.00575806992824
1.39198744456 0.0279339084664 0.0130656763446
1.42237197578 -0.0657571062878 0.0010578096116
1.4115008167 -0.00122896767809 -0.000779073283069
1.37608847468 0.00618434160845 -0.242985378375
1.42196662598 -0.00341524428961 0.0949218553728
1.41158607191 -0.0128330295905 -0.105214807713
1.44796130233 -0.0181633599068 -0.0134112055163