# vtk DataFile Version 2.0
Really cool data
ASCII
DATASET UNSTRUCTURED_GRID
POINTS 623 double
200.0 200.0 -125.0
-200.0 200.0 -125.0
-200.0 -200.0 -125.0
200.0 -200.0 -125.0
200.0 200.0 125.0
-200.0 200.0 125.0
-200.0 -200.0 125.0
200.0 -200.0 125.0
-18.3786 -139.5992 -125.0
-53.8833 -130.0857 -125.0
-85.7159 -111.7071 -125.0
-111.7071 -85.7159 -125.0
-130.0857 -53.8833 -125.0
-139.5992 -18.3786 -125.0
-139.5992 18.3786 -125.0
-130.0857 53.8833 -125.0
-111.7071 85.7159 -125.0
-85.7159 111.7071 -125.0
-53.8833 130.0857 -125.0
-18.3786 139.5992 -125.0
18.3786 139.5992 -125.0
53.8833 130.0857 -125.0
85.7159 111.7071 -125.0
111.7071 85.7159 -125.0
130.0857 53.8833 -125.0
139.5992 18.3786 -125.0
139.5992 -18.3786 -125.0
130.0857 -53.8833 -125.0
111.7071 -85.7159 -125.0
85.7159 -111.7071 -125.0
53.8833 -130.0857 -125.0
18.3786 -139.5992 -125.0
-18.3786 -139.5992 125.0
-53.8833 -130.0857 125.0
-85.7159 -111.7071 125.0
-111.7071 -85.7159 125.0
-130.0857 -53.8833 125.0
-139.5992 -18.3786 125.0
-139.5992 18.3786 125.0
-130.0857 53.8833 125.0
-111.7071 85.7159 125.0
-85.7159 111.7071 125.0
-53.8833 130.0857 125.0
-18.3786 139.5992 125.0
18.3786 139.5992 125.0
53.8833 130.0857 125.0
85.7159 111.7071 125.0
111.7071 85.7159 125.0
130.0857 53.8833 125.0
139.5992 18.3786 125.0
139.5992 -18.3786 125.0
130.0857 -53.8833 125.0
111.7071 -85.7159 125.0
85.7159 -111.7071 125.0
53.8833 -130.0857 125.0
18.3786 -139.5992 125.0
150.0 200.0 -125.0
100.0 200.0 -125.0
50.0 200.0 -125.0
0.0 200.0 -125.0
-50.0 200.0 -125.0
-100.0 200.0 -125.0
-150.0 200.0 -125.0
-200.0 150.0 -125.0
-200.0 100.0 -125.0
-200.0 50.0 -125.0
-200.0 0.0 -125.0
-200.0 -50.0 -125.0
-200.0 -100.0 -125.0
-200.0 -150.0 -125.0
-150.0 -200.0 -125.0
-100.0 -200.0 -125.0
-50.0 -200.0 -125.0
0.0 -200.0 -125.0
50.0 -200.0 -125.0
100.0 -200.0 -125.0
150.0 -200.0 -125.0
200.0 -150.0 -125.0
200.0 -100.0 -125.0
200.0 -50.0 -125.0
200.0 0.0 -125.0
200.0 50.0 -125.0
200.0 100.0 -125.0
200.0 150.0 -125.0
150.0 200.0 125.0
100.0 200.0 125.0
50.0 200.0 125.0
0.0 200.0 125.0
-50.0 200.0 125.0
-100.0 200.0 125.0
-150.0 200.0 125.0
-200.0 150.0 125.0
-200.0 100.0 125.0
-200.0 50.0 125.0
-200.0 0.0 125.0
-200.0 -50.0 125.0
-200.0 -100.0 125.0
-200.0 -150.0 125.0
-150.0 -200.0 125.0
-100.0 -200.0 125.0
-50.0 -200.0 125.0
0.0 -200.0 125.0
50.0 -200.0 125.0
100.0 -200.0 125.0
150.0 -200.0 125.0
200.0 -150.0 125.0
200.0 -100.0 125.0
200.0 -50.0 125.0
200.0 0.0 125.0
200.0 50.0 125.0
200.0 100.0 125.0
200.0 150.0 125.0
200.0 200.0 -75.0
200.0 200.0 -25.0
200.0 200.0 25.0
200.0 200.0 75.0
-200.0 200.0 -75.0
-200.0 200.0 -25.0
-200.0 200.0 25.0
-200.0 200.0 75.0
-200.0 -200.0 -75.0
-200.0 -200.0 -25.0
-200.0 -200.0 25.0
-200.0 -200.0 75.0
200.0 -200.0 -75.0
200.0 -200.0 -25.0
200.0 -200.0 25.0
200.0 -200.0 75.0
-18.3786 -139.5992 -75.0
-18.3786 -139.5992 -25.0
-18.3786 -139.5992 25.0
-18.3786 -139.5992 75.0
-53.8833 -130.0857 -75.0
-53.8833 -130.0857 -25.0
-53.8833 -130.0857 25.0
-53.8833 -130.0857 75.0
-85.7159 -111.7071 -75.0
-85.7159 -111.7071 -25.0
-85.7159 -111.7071 25.0
-85.7159 -111.7071 75.0
-111.7071 -85.7159 -75.0
-111.7071 -85.7159 -25.0
-111.7071 -85.7159 25.0
-111.7071 -85.7159 75.0
-130.0857 -53.8833 -75.0
-130.0857 -53.8833 -25.0
-130.0857 -53.8833 25.0
-130.0857 -53.8833 75.0
-139.5992 -18.3786 -75.0
-139.5992 -18.3786 -25.0
-139.5992 -18.3786 25.0
-139.5992 -18.3786 75.0
-139.5992 18.3786 -75.0
-139.5992 18.3786 -25.0
-139.5992 18.3786 25.0
-139.5992 18.3786 75.0
-130.0857 53.8833 -75.0
-130.0857 53.8833 -25.0
-130.0857 53.8833 25.0
-130.0857 53.8833 75.0
-111.7071 85.7159 -75.0
-111.7071 85.7159 -25.0
-111.7071 85.7159 25.0
-111.7071 85.7159 75.0
-85.7159 111.7071 -75.0
-85.7159 111.7071 -25.0
-85.7159 111.7071 25.0
-85.7159 111.7071 75.0
-53.8833 130.0857 -75.0
-53.8833 130.0857 -25.0
-53.8833 130.0857 25.0
-53.8833 130.0857 75.0
-18.3786 139.5992 -75.0
-18.3786 139.5992 -25.0
-18.3786 139.5992 25.0
-18.3786 139.5992 75.0
18.3786 139.5992 -75.0
18.3786 139.5992 -25.0
18.3786 139.5992 25.0
18.3786 139.5992 75.0
53.8833 130.0857 -75.0
53.8833 130.0857 -25.0
53.8833 130.0857 25.0
53.8833 130.0857 75.0
85.7159 111.7071 -75.0
85.7159 111.7071 -25.0
85.7159 111.7071 25.0
85.7159 111.7071 75.0
111.7071 85.7159 -75.0
111.7071 85.7159 -25.0
111.7071 85.7159 25.0
111.7071 85.7159 75.0
130.0857 53.8833 -75.0
130.0857 53.8833 -25.0
130.0857 53.8833 25.0
130.0857 53.8833 75.0
139.5992 18.3786 -75.0
139.5992 18.3786 -25.0
139.5992 18.3786 25.0
139.5992 18.3786 75.0
139.5992 -18.3786 -75.0
139.5992 -18.3786 -25.0
139.5992 -18.3786 25.0
139.5992 -18.3786 75.0
130.0857 -53.8833 -75.0
130.0857 -53.8833 -25.0
130.0857 -53.8833 25.0
130.0857 -53.8833 75.0
111.7071 -85.7159 -75.0
111.7071 -85.7159 -25.0
111.7071 -85.7159 25.0
111.7071 -85.7159 75.0
85.7159 -111.7071 -75.0
85.7159 -111.7071 -25.0
85.7159 -111.7071 25.0
85.7159 -111.7071 75.0
53.8833 -130.0857 -75.0
53.8833 -130.0857 -25.0
53.8833 -130.0857 25.0
53.8833 -130.0857 75.0
18.3786 -139.5992 -75.0
18.3786 -139.5992 -25.0
18.3786 -139.5992 25.0
18.3786 -139.5992 75.0
-29.5627 200.0 7.5396
85.7408 200.0 0.0
-106.6741 200.0 -31.1481
-121.2891 200.0 46.2891
31.9444 200.0 50.8333
31.9444 200.0 -50.8333
130.8885 200.0 -60.814
130.8885 200.0 60.814
-51.8678 200.0 57.7871
-53.2235 200.0 -62.0358
162.3892 200.0 0.0
-151.1827 200.0 0.6619
81.4651 200.0 -75.2188
80.5582 200.0 74.5326
-80.1687 200.0 15.5627
-145.6089 200.0 -71.1183
27.3552 200.0 0.2142
-8.0346 200.0 80.9781
-6.8585 200.0 -79.5541
-94.3722 200.0 -81.1063
-153.9627 200.0 78.9627
-92.541 200.0 80.3956
-12.3113 200.0 -35.2201
160.4814 200.0 -85.4814
160.4814 200.0 85.4814
-6.0331 200.0 39.4705
69.4729 200.0 35.5617
69.4729 200.0 -35.5617
27.8034 200.0 91.1226
-158.4736 200.0 39.3242
31.2863 200.0 -90.2747
-162.8295 200.0 -36.4462
122.9579 200.0 -94.0948
122.9579 200.0 94.0948
169.0948 200.0 -47.9579
169.0948 200.0 47.9579
-56.388 200.0 -21.0603
-115.195 200.0 9.69
118.0729 200.0 22.3683
118.0729 200.0 -22.3683
-123.5585 200.0 91.1295
-170.0345 200.0 -97.655
-125.0 200.0 -99.8246
-200.0 29.5627 7.5396
-200.0 -85.7408 0.0
-200.0 106.6741 -31.1481
-200.0 121.2891 46.2891
-200.0 -31.9444 50.8333
-200.0 -31.9444 -50.8333
-200.0 -130.8885 -60.814
-200.0 -130.8885 60.814
-200.0 51.8678 57.7871
-200.0 53.2235 -62.0358
-200.0 -162.3892 0.0
-200.0 151.1827 0.6619
-200.0 -81.4651 -75.2188
-200.0 -80.5582 74.5326
-200.0 80.1687 15.5627
-200.0 145.6089 -71.1183
-200.0 -27.3552 0.2142
-200.0 8.0346 80.9781
-200.0 6.8585 -79.5541
-200.0 94.3722 -81.1063
-200.0 153.9627 78.9627
-200.0 92.541 80.3956
-200.0 12.3113 -35.2201
-200.0 -160.4814 -85.4814
-200.0 -160.4814 85.4814
-200.0 6.0331 39.4705
-200.0 -69.4729 35.5617
-200.0 -69.4729 -35.5617
-200.0 -27.8034 91.1226
-200.0 158.4736 39.3242
-200.0 -31.2863 -90.2747
-200.0 162.8295 -36.4462
-200.0 -122.9579 -94.0948
-200.0 -122.9579 94.0948
-200.0 -169.0948 -47.9579
-200.0 -169.0948 47.9579
-200.0 56.388 -21.0603
-200.0 115.195 9.69
-200.0 -118.0729 22.3683
-200.0 -118.0729 -22.3683
-200.0 123.5585 91.1295
-200.0 170.0345 -97.655
-200.0 125.0 -99.8246
-29.5627 -200.0 7.5396
85.7408 -200.0 0.0
-106.6741 -200.0 -31.1481
-121.2891 -200.0 46.2891
31.9444 -200.0 50.8333
31.9444 -200.0 -50.8333
130.8885 -200.0 -60.814
130.8885 -200.0 60.814
-51.8678 -200.0 57.7871
-53.2235 -200.0 -62.0358
162.3892 -200.0 0.0
-151.1827 -200.0 0.6619
81.4651 -200.0 -75.2188
80.5582 -200.0 74.5326
-80.1687 -200.0 15.5627
-145.6089 -200.0 -71.1183
27.3552 -200.0 0.2142
-8.0346 -200.0 80.9781
-6.8585 -200.0 -79.5541
-94.3722 -200.0 -81.1063
-153.9627 -200.0 78.9627
-92.541 -200.0 80.3956
-12.3113 -200.0 -35.2201
160.4814 -200.0 -85.4814
160.4814 -200.0 85.4814
-6.0331 -200.0 39.4705
69.4729 -200.0 35.5617
69.4729 -200.0 -35.5617
27.8034 -200.0 91.1226
-158.4736 -200.0 39.3242
31.2863 -200.0 -90.2747
-162.8295 -200.0 -36.4462
122.9579 -200.0 -94.0948
122.9579 -200.0 94.0948
169.0948 -200.0 -47.9579
169.0948 -200.0 47.9579
-56.388 -200.0 -21.0603
-115.195 -200.0 9.69
118.0729 -200.0 22.3683
118.0729 -200.0 -22.3683
-123.5585 -200.0 91.1295
-170.0345 -200.0 -97.655
-125.0 -200.0 -99.8246
200.0 29.5627 7.5396
200.0 -85.7408 0.0
200.0 106.6741 -31.1481
200.0 121.2891 46.2891
200.0 -31.9444 50.8333
200.0 -31.9444 -50.8333
200.0 -130.8885 -60.814
200.0 -130.8885 60.814
200.0 51.8678 57.7871
200.0 53.2235 -62.0358
200.0 -162.3892 0.0
200.0 151.1827 0.6619
200.0 -81.4651 -75.2188
200.0 -80.5582 74.5326
200.0 80.1687 15.5627
200.0 145.6089 -71.1183
200.0 -27.3552 0.2142
200.0 8.0346 80.9781
200.0 6.8585 -79.5541
200.0 94.3722 -81.1063
200.0 153.9627 78.9627
200.0 92.541 80.3956
200.0 12.3113 -35.2201
200.0 -160.4814 -85.4814
200.0 -160.4814 85.4814
200.0 6.0331 39.4705
200.0 -69.4729 35.5617
200.0 -69.4729 -35.5617
200.0 -27.8034 91.1226
200.0 158.4736 39.3242
200.0 -31.2863 -90.2747
200.0 162.8295 -36.4462
200.0 -122.9579 -94.0948
200.0 -122.9579 94.0948
200.0 -169.0948 -47.9579
200.0 -169.0948 47.9579
200.0 56.388 -21.0603
200.0 115.195 9.69
200.0 -118.0729 22.3683
200.0 -118.0729 -22.3683
200.0 123.5585 91.1295
200.0 170.0345 -97.655
200.0 125.0 -99.8246
-36.131 -134.8425 0.0
-36.131 -134.8425 50.0
-36.131 -134.8425 -100.0
-36.131 -134.8425 100.0
-36.131 -134.8425 -50.0
-69.7996 -120.8964 0.0
-69.7996 -120.8964 50.0
-69.7996 -120.8964 -100.0
-69.7996 -120.8964 100.0
-69.7996 -120.8964 -50.0
-98.7115 -98.7115 0.0
-98.7115 -98.7115 50.0
-98.7115 -98.7115 -100.0
-98.7115 -98.7115 100.0
-98.7115 -98.7115 -50.0
-120.8964 -69.7996 0.0
-120.8964 -69.7996 50.0
-120.8964 -69.7996 -100.0
-120.8964 -69.7996 100.0
-120.8964 -69.7996 -50.0
-134.8425 -36.1309 0.0
-134.8424 -36.1309 50.0
-134.8424 -36.1309 100.0
-134.8425 -36.1309 -100.0
-134.8425 -36.1309 -50.0
-139.5992 0.0 0.0
-139.5992 0.0 50.0
-139.5992 0.0 -100.0
-139.5992 0.0 100.0
-139.5992 0.0 -50.0
-134.8425 36.131 0.0
-134.8425 36.131 50.0
-134.8425 36.131 -100.0
-134.8425 36.131 100.0
-134.8425 36.131 -50.0
-120.8964 69.7996 0.0
-120.8964 69.7996 50.0
-120.8964 69.7996 -100.0
-120.8964 69.7996 100.0
-120.8964 69.7996 -50.0
[...]
POINT_DATA 623
SCALARS BTE_Temperature_[K] double 1
LOOKUP_TABLE default
-0.4695689787628313
0.4743444189346512
0.4734667299599257
-0.4702035176423289
-0.46961577059017834
0.47077962645807325
0.46814871059374163
-0.4705772744178942
0.07801429619991251
0.22942962819324658
0.34597669436720463
0.42349608974428266
0.47389780180823615
0.4974548772936475
0.4975726132165108
0.4746480186762218
0.42348145804146464
0.3445579558233017
0.22849588631213652
0.0779514860783863
-0.08052361023507618
-0.22854688600860545
-0.34438551372621207
-0.4231215101891852
-0.4738259149689569
-0.4970740717299204
-0.4974440554236672
-0.4748152822828346
-0.4250779321419908
-0.3415736467413148
-0.22777368563738926
-0.08018954679525817
0.07976751857251003
0.2336737551569396
0.34704073739510033
0.42422422862229403
0.4741135887697279
0.49817584563553224
0.49747719666146645
0.4746156126257211
0.42400794603476066
0.3451316846070355
0.22962739080322186
0.07938442428675758
-0.08046708929612903
-0.23079475329310792
-0.34529351509451095
-0.42374681056490016
-0.4743054002088359
-0.49792352493849246
-0.4975221933535793
-0.47485832363259456
-0.42313746392853063
-0.33807219616232065
-0.22708309134115465
-0.0791063007607841
-0.40156721850576216
-0.310489662863106
-0.18364267179974716
-0.011809600279902277
0.17970616784479426
0.3177686224212469
0.40565236397414317
0.48574078174143204
0.4875986140109335
0.4915526904849192
0.49490862325262003
0.4916926274130581
0.4859550385060132
0.4836486207461962
0.4048517771725732
0.3172369836665853
0.17975209996117053
-0.011725646863263309
-0.18351655696238495
-0.3100602309906594
-0.4009874562422553
-0.4851668629115288
-0.4869297299173276
-0.49182278380911076
-0.4950630997311622
-0.49219574821677303
-0.48746460864263835
-0.48353537289078224
-0.3999472787499035
-0.3091985461520413
-0.18116494659420773
-0.008861880974486498
0.17762040134016224
0.3129472863469326
0.39925544161339455
0.4864008748832218
0.4865212556228189
0.49239781207226335
0.49498899878339103
0.491561584147936
0.4859150587668742
0.4837723973946463
0.39873299964773595
0.3129744069055434
0.1773475040944977
-0.00889108987182427
-0.1814298757057791
-0.30901313459011465
-0.39995847004555835
-0.48517164580364336
-0.4870790338930814
-0.4920213070768031
-0.4950326498239164
-0.4919711097165623
-0.4854542991948249
-0.48330670267733494
-0.48179517572104114
-0.48140633404774363
-0.4814545165035149
-0.48149127092649757
0.47850982716107304
0.47824978244583394
0.4769594099465412
0.4745592706866228
0.4751077025708256
0.4780148561948905
0.476638466367188
0.4769780153435223
-0.4812255434762987
-0.48130954440193496
-0.4812790420683465
-0.48052599305449784
0.08241428272763199
0.08608593923721997
0.08092431462011439
0.08160442555893355
0.2401592677357238
0.21903819897197724
0.21455838427319107
0.23896215845985624
0.34595083656026515
0.3399441669974547
0.34346142621716313
0.3378929844558476
0.4058494064262721
0.41192293535155794
0.4120993104397586
0.4164369894917308
0.4697515448320665
0.46785795473706243
0.4667342455069819
0.4631876802708718
0.48642272013541943
0.48612535047997907
0.48595840638049126
0.4867352823255491
0.48613136699559506
0.48611680302168314
0.4861226791851268
0.4861348387225763
0.46645770391587016
0.4722675071589721
0.46830453310692455
0.4650575683218352
0.4183350215674708
0.41562982579547986
0.41253823182479743
0.4162984077036019
0.3364096798542536
0.3458248240031432
0.3448625980895675
0.33810342616115585
0.22591370586770707
0.21861771419030165
0.21562376703756342
0.23040645055636394
0.08235507308896184
0.08603679891495308
0.08090694208236296
0.08230884439763272
-0.07844985972203987
-0.08277798530412409
-0.08509170020440479
-0.07236835425433427
-0.21252574295632437
-0.23473925266904586
-0.23583685614479424
-0.22825981946027327
-0.34947853701775244
-0.34181388814800845
-0.34407369902554663
-0.3377514392407249
-0.4096940406943985
-0.41804271220196704
-0.4121411596739437
-0.41638770939491093
-0.464510868848458
-0.471457172007558
-0.46795447735056206
-0.46233377049272273
-0.485969580391541
-0.4856553766539753
-0.48577755911279724
-0.4861069300068765
-0.48629698625391626
-0.4858548640248603
-0.4857398399979683
-0.4864328886727389
-0.4678791756923301
-0.4650389132608957
-0.46284420308185414
-0.4677228065598522
-0.41307280303594923
-0.4177979300768676
-0.4194382104862739
-0.42081956479819854
-0.3285430817816048
-0.33152096437264
-0.33487476989172443
-0.33733449121409226
-0.22084528419391727
-0.23371681150312712
-0.23873436338146595
-0.2184122741831212
-0.07829606008501887
-0.0835045017357471
-0.08496945476018249
-0.07594405329658611
0.10146616488573257
-0.2525734072938859
0.3153068280185867
0.35231656013976975
-0.09027349884845064
-0.10197509936582258
-0.35996803312913345
-0.36532274998523295
0.16401509827425534
0.1796704481712503
-0.4449735049478129
0.4164723254564498
-0.2493794797644427
-0.23196021172890566
0.24277995511407954
0.41443120758520946
-0.08654238782381937
0.025059280500924538
0.023379559873774255
0.30095032645733577
0.4240339841344847
0.27129901419760294
0.04183546425999246
-0.4321806079362892
-0.42597705401667835
0.029974852583835674
-0.19991416094534747
-0.20827011012379884
-0.09984603637057177
0.4333849232587773
-0.09286664078805837
0.4448661666260373
-0.36441765380716734
-0.3486404445537195
-0.435109114480308
-0.4477142329255003
0.16414051449008246
0.3487803218177019
-0.351371427112004
-0.34439331518779004
0.3570537591433832
0.4503903005764418
0.3816193236225248
0.487983946507495
0.47499755477417976
0.46505207005761734
0.47988393920450834
0.4889926923572412
0.4879157495598214
0.4842181835811627
0.47742674279598923
0.4841517266080558
0.48148438047645536
0.46294002068436396
0.46317433013539394
0.48338330524557216
0.4818744415653551
0.47922456041044376
0.46747288469564
0.48710994765238486
0.49122860513638156
0.4912712357610436
0.46994898824711817
0.4694285601012676
0.4826936270072544
0.48962982111384945
0.46201823838517225
0.4663025942509064
0.4894941584482429
0.48266039558382146
0.4783257466613949
0.48814052370586286
0.4741501996241631
0.49001696062179106
0.4691591133100805
0.4687597482424988
0.4753170918339331
0.4605853021024681
0.4693270436678974
0.48471780618116916
0.47989655738869363
0.4748544375084822
0.4772815172051377
0.4757816484976393
0.4832464827443184
0.4786495012586621
0.10151675023959442
-0.24765873917846692
0.3118091340450164
0.3508016121816016
-0.10157876568107306
-0.10202361566890203
-0.3614110934953365
-0.3682799229350237
0.16357796432478186
0.19097813379131964
-0.4443107824067512
0.42570298487187486
-0.2551668075625376
-0.25214023443143807
0.24205130845436298
0.41770936870662523
-0.0866464044465994
0.025056003846279745
0.023422073845714986
0.29998204180216614
0.4274519830507645
0.2532830432343774
0.04186113930979384
-0.42388917326417047
-0.4290727113600739
0.030038758576075363
-0.19900602294096328
-0.19950693523568122
-0.08862908620424917
0.43956521367265877
-0.09266317735295003
0.43624556669102854
-0.3468494668507336
-0.3440563397786712
-0.43831453960263805
-0.43844299913396334
0.1643649931640228
0.357560272908205
-0.3369519781604935
-0.3486328229300257
0.34814569188776673
0.43934295960639225
0.3755591614168669
-0.4875667310215981
-0.48092814009701645
-0.46680582062307574
-0.4792154633565004
-0.4877321831501826
-0.4876230802835903
-0.47293736470586484
-0.47349649322854975
-0.48339726558222085
-0.48069038697591704
-0.4691643660730387
-0.4699142701168196
-0.4815309331583149
-0.4814427838931767
-0.47871782604022045
-0.47525577149468745
-0.4871207269893449
-0.49129601173134635
-0.4913029946008082
-0.4803911511303456
-0.46650200771378336
-0.4811311996541913
-0.48929292805948166
-0.46285967603633194
-0.4735761484878143
-0.4893174708007068
-0.481240075025781
-0.48227951749571873
-0.49020024596351824
-0.47300919933996866
-0.4900425783548378
-0.46944891621835283
-0.4803594096987143
-0.4799807438705204
-0.46470379948641677
-0.46717770457777535
-0.48405422944182797
-0.4722238844228193
-0.47772545873337313
-0.4746168815506895
-0.47503947686107906
-0.473345027721011
-0.47893096331581436
0.15881565196927994
0.15650673631748002
0.17327285829567068
0.18584432710639412
0.13912410781996964
0.29472236022898335
0.2855483064327907
0.31216173327942714
0.30805483135417916
0.27844994104086174
0.3829692682420966
0.37955946602052437
0.38711021209258734
0.38596278095621717
0.3849173145653746
0.44029168953743253
0.4409715271068527
0.43760975501884336
0.44068505778436107
0.4484057735029851
0.47941426615371574
0.4785736863725841
0.48082243186800067
0.4800601424982462
0.4802935257123507
0.48919096048316024
0.488588977798195
0.49095204464461933
0.49109797863714494
0.48882250264023486
0.48150570079788924
0.4771598602675095
0.48025305248622224
0.48044805221941833
0.4829089174676031
0.44744267187224995
0.44130207459816617
0.44087628156324393
0.44082340354757577
0.45459279917328227
0.3839295272266409
0.380310869112942
0.38457243905166677
0.3856022268817787
0.38241302751666045
0.2957656411223194
0.286964673454276
0.30474125382507816
0.30526983646904665
0.2819605272314655
0.15872732169690096
0.15743844153416237
0.17310557627563994
0.17732114558152148
0.1387488659525983
0.008777824578627958
-0.008227856881015995
-0.009037018833816695
-0.0063088729360904
-0.006000548475565739
-0.17113996703999215
-0.17394395774182836
-0.17606288820417385
-0.17185289547679578
-0.15118031552098368
-0.30183464612408095
-0.2875046066815935
-0.3073495432038089
-0.3057705103470811
-0.275865816937557
-0.38237632007341515
-0.3802119857096793
-0.3864091081927783
-0.3855254677246789
-0.3794072870351478
-0.44705042332102407
-0.44125513867805083
-0.4360547668485444
-0.4403908624586905
-0.45203975207437563
-0.480958338689157
-0.476837332956139
-0.47980708831949775
-0.4794937101697577
-0.48225889179573367
-0.48895467759565703
-0.4885596643502085
-0.4909957268787853
-0.49117278553072524
-0.48857045273102406
-0.47768060729507383
-0.476249169307902
-0.48032360056994783
-0.4803768386549016
-0.47624271053324624
-0.4435529779632708
-0.44413484833768824
-0.4457597559246284
-0.44443767505047416
-0.44311744386820445
-0.38159276785349816
-0.38131076668843683
-0.3852151896405979
-0.3825380476128277
-0.38258105285139804
-0.2847767183325453
-0.28400452950039046
-0.29797113741034004
-0.2941931796464154
-0.28430779252821325
-0.18432294445231212
-0.17281634600178844
-0.1755533471097348
-0.1747212546442486
-0.17320974049258983
0.008735669045414713
-0.008161389583957897
-0.008894900187445766
-0.006303701465032638
-0.0060684746334288085
0.40586648079556426
0.4152412055870471
-0.41626240449370905
-0.4001007943431797
0.29761844233565965
-0.4557203707846171
0.4560294388008694
0.2918045910020586
-0.29390841890671254
0.45603726595631566
-0.28155115469374337
-0.461741571557224
0.1339669861860818
0.48678653467714816
0.12603297968218682
-0.4885648447541019
-0.12439506923660096
-0.48646203342086025
-0.1328782771161312
0.4884330715339237
0.3835935588769652
0.3841907866862781
-0.3835453346418394
-0.38623857768897624
-0.007330105216749063
0.49442361920075356
-0.49447592040595684
-0.007280400128111221
0.46497338982613745
-0.37830594084684843
-0.3697916790912201
-0.4664013161619373
0.4644008366625896
0.36220518486703007
-0.4647381538950601
0.3768673215657544
0.44790044046491523
0.44259722191615597
-0.4441392686884381
-0.43550939280204676
0.40474718317808894
0.42287801741560416
-0.39683340774487735
-0.403604458350402
0.27342308922407393
-0.4590929673090301
0.4577453301328222
0.2802693695195054
-0.2817629107146558
0.46224806662074436
-0.28410246090030256
-0.46234160364060994
0.11052607960945163
0.48873273380097987
0.11058120860197056
-0.4865398538044113
-0.1353829779960174
-0.4863427704999391
-0.1350343736530297
0.4862100059573695
0.3827677925518804
0.3846886841259773
-0.3816855042154645
-0.38975892184980054
0.4943142393426231
-0.010195902085163314
-0.4943782605043549
-0.01006156814561499
0.46581481664563645
-0.35911915050125776
-0.3724526878711185
-0.4672410110008732
0.36256258110577677
0.4656837384571394
-0.4681112510152394
0.35592429408307047
0.44722016513869034
-0.441654189311775
0.4389628240617948
-0.4380185673940889
0.4033617666863461
0.4023315490061374
-0.40387075056026805
0.40877516397491076
-0.40947640739543173
-0.41067836530009344
-0.41116641672654536
0.4088151691513833
0.40493024217164747
-0.43551503987275436
0.3691649323274033
-0.33212823966291094
0.447636255131805
0.31429263741354085
0.45715384602639236
-0.36919289276046935
-0.4302745246889277
-0.4362454040034184
-0.3500439317787229
-0.3070619108369658
0.4545246301202456
-0.45521078292725925
0.3016277118017519
-0.2940095270070608
-0.45450740797476635
-0.4535760205594949
-0.2983606304675289
VECTORS BTE_Thermal_Flux_[W/m/m] double
2.510472572523125 -0.023386850712831555 0.013428871774545291
2.4357258179018615 0.0377362687400863 0.02144645521178733
2.560971129963313 -0.03854570278749563 0.060635253038456564
2.62850192568387 0.019860539259476756 -0.030337502705876956
2.654321786402513 0.00860185411185136 -0.01852354743744681
2.5745384647162703 0.027068353352903984 0.026017741069110884
2.4929882967021957 -0.023442033295984512 0.0389295447051463
2.615586818377236 0.03346333695519402 -0.023390959273847742
4.073826138697552 -0.8691749625018946 0.16943908339602684
2.981112382122983 -2.0316407330253305 0.6702700945820098
1.355878133829404 -2.4280710842278843 1.0476663527385215
0.31105893449265165 -2.035411972365201 1.492513942693335
-0.6516522816098862 -1.3406032540376045 1.6158737570793633
-1.5678767313413868 -0.5495686275908354 1.506053866386275
-1.5296470497229184 0.4300694287153088 1.5144861041555593
-0.6624897193158688 1.3632957148224452 1.610905405017095
0.3783196321658682 2.010173939386375 1.4915351314633931
1.436840872005412 2.3575557936965867 1.0407977242407633
2.939250922274664 1.9994307341524773 0.7058568493911002
4.077780125840425 0.8597567163032668 0.17161258626493456
3.9491038056278738 -0.891071983359466 -0.24117215168795045
2.9745691397066714 -2.0228224319445514 -0.7506838784492501
1.4605357357656563 -2.488873035346344 -1.0890203853093259
0.43570186987409 -2.0888020800038323 -1.5115233638337142
-0.5169273555005655 -1.3893959630916606 -1.6911545522880647
-1.474684315402823 -0.533089510593021 -1.5923709161307318
-1.462554831010361 0.5424077082106722 -1.5714028918448708
-0.5509369122219473 1.2269504611102697 -1.6613319396111155
0.8188521762361658 1.8359035862858253 -1.1461660355094376
2.128707462990038 2.1683134153165624 -0.8823025070655403
3.0155125856573277 2.0712451583274127 -0.7413712712779932
3.935835972535119 0.8976889261969061 -0.23881728717388467
4.114632782853383 -0.8813095233166107 -0.19894644914119486
2.8589419150411075 -1.8811640619907066 -0.6751818176861263
1.3703706162507787 -2.3163655711333186 -1.0528408171647103
0.3327917230879256 -1.9718681304354013 -1.5011319849603726
-0.6556987926925123 -1.4283003148833076 -1.6148551797025192
-1.5204823294998857 -0.4970885214970724 -1.5139929535451984
-1.5712711701942594 0.4971053958518444 -1.5218585129756985
-0.6764473671462594 1.357652351108905 -1.626214485534866
0.35651425292264916 1.9737676890930715 -1.493175451528628
1.4275741939566609 2.3193895077781574 -1.02747567090189
2.915704035680595 1.9524502536793924 -0.7217693210714073
4.089385394967005 0.9066315194552562 -0.21886128649065867
3.9991978264221175 -0.8563187561726794 0.20200900072122735
2.938423814114164 -1.9402982619820783 0.706136373882957
1.5253219586196602 -2.382150365549486 1.0431231539177528
0.47882760658936585 -2.020276747058934 1.5020033314788654
-0.5097259495055863 -1.4431781567371385 1.6304090100268998
-1.4142907433287233 -0.4398091639696499 1.5450667752596825
-1.4613891001405266 0.5501593210440788 1.5440441750041867
-0.5455918886105648 1.2293442491940059 1.629634324052038
0.8941820537560583 1.849855554868024 1.0740756854085098
2.210019680389283 2.144395039342332 0.8277952766555864
3.0296278423910366 2.072510769774488 0.7298821416936766
3.9565407098187686 0.899784741152384 0.2307371854183669
2.68201610126777 -0.07234015437792352 0.09396818395413246
3.2956235583082587 -0.11568122917268556 -0.07351771389544268
3.8745679171582115 -0.1907641477497282 -0.1832174273972906
4.370557586093891 -0.1237769027761588 -0.24964293100394092
3.991135223589519 -0.023394942975625665 -0.06689188673042394
3.282720947168564 0.028352508208772956 -0.05627473878627137
2.5546461461753824 0.00850291613294751 -0.08041343932858314
2.087174727107455 0.03010842568679998 0.07504137957442882
1.5846721745564345 0.1168719975697721 0.10048484328254727
0.6910984496454129 0.14439913303210633 0.09072712070692622
0.21764575228950936 -0.04281445671071458 0.04642538106901996
0.688933628374822 -0.15695182908935396 0.06436229397226813
1.4751455782046827 -0.22351810115403062 0.0891164171841531
2.1201350204013822 -0.06654169238604482 0.16935434831527352
2.5873870784021578 -0.011075408599075985 -0.058997872760209555
3.2890102399319074 0.0038794470614702467 -0.03153043774947431
3.984862986848488 -0.014629220109831304 -0.07972156243255193
4.372838855417436 0.11481717962684265 -0.24865339646083537
3.8799179591840653 0.2068948453229737 -0.17828853955970791
3.2891157516267153 0.17036355977267925 -0.07821887186522056
2.744833773416306 0.07337970227795135 -0.044141823761266505
2.2822984674941478 0.15960122813483602 -0.11448594576294026
1.5559467942485752 0.20477482786777232 -0.09569862503045708
0.7695317414578439 0.1560642380082568 -0.08081081467434859
0.2999531501531938 0.036683444644105945 -0.0577611376399378
0.8256667933034872 -0.12472213595418413 -0.07431994830455221
1.62646918930657 -0.16751968508912116 -0.09300355759245535
2.141882065829889 -0.118203075496157 -0.13373789397920816
2.7406006959528897 -0.14863732234471852 0.00821409148123795
3.3085218779038477 -0.1767272882897015 0.0595912794182046
3.859298745084074 -0.1433596444415097 0.13325396634280995
4.389558872907465 -0.09484494303283388 0.18401562981808456
3.9650224313073545 0.17984592035378172 -0.10225480749315267
3.270723161397259 0.0689027074793739 -0.06348825543880281
2.769318941897689 0.10081610418179122 0.05100609650714971
2.2880621466669937 0.010406842416724245 -0.07101751433739925
1.6535240545509458 0.12691315505019493 -0.05939199854445042
0.7295667436497807 0.09545194413095938 -0.041944019301173745
0.21883482277683636 -0.053814575054363045 -0.029328197483095748
0.6520507548877567 -0.17242606828313642 -0.05664913059162482
1.5549825451122625 -0.21814545261709947 -0.06250334048268075
2.2536787970098704 -0.10777112130548072 -0.11181569656864052
2.738119379491603 -0.1619345089049153 0.03772084036196598
3.28320181790591 -0.21870946551481005 -0.14543958020084627
3.969061464940071 -0.1452324598699579 -0.12507277846374626
4.384303658524413 0.09139411927444296 0.18416128751995037
3.868343709297891 0.190972269859682 0.11922900521009146
3.3004544521295927 0.16276037878586797 0.05249268690205726
2.7755064095711237 0.08883479614506691 0.03363875679282309
2.318946372173244 0.13195267848584422 0.07775438773481037
1.600156361654495 0.1747720032154794 0.05724975168835373
0.7619016196924393 0.13926749257346913 0.04692457866242274
0.2970696281694133 0.030615508294481973 0.025366556968122466
0.7856213762446146 -0.1322266987714087 0.04456096273164378
1.7228796690366799 -0.19472715394896173 0.059972357275511166
2.3462180015425345 -0.10218320983968661 0.11176292166914298
3.035735060685833 0.00836558688545051 -0.01891721361834922
3.192206124313164 0.04231872041778225 0.032530874328185994
3.1801769615109343 0.02161058797600562 -0.05729957352625151
3.0657636723160406 0.05675831452529022 -0.006737186496559953
2.940057141170355 -0.06698793839345572 0.021902769319858656
3.004683139383887 -0.05314062748635397 0.01316039810520567
2.9852420984386603 -0.05671902783828755 -0.037589966678506004
2.825873472294313 -0.022476322480464685 0.018904107152139298
2.93883286431943 0.08156065928933176 -0.004488841322455764
3.0448361905885912 0.07259153292029089 -0.006598262595142526
3.0056988287907203 0.08155984478813572 -0.02820381919124484
2.8457432731117236 0.02738210097128066 0.01866388832154021
3.119321792930005 -0.08400716630591468 -0.05375768373403487