# vtk DataFile Version 2.0
Really cool data
ASCII
DATASET UNSTRUCTURED_GRID
POINTS 1276 float
5.0 5.0 0.0
-5.0 5.0 0.0
-5.0 -5.0 0.0
5.0 -5.0 0.0
-0.7343 -2.7405 0.0
-1.4186 -2.457 0.0
-2.0062 -2.0062 0.0
-2.457 -1.4186 0.0
-2.7405 -0.7343 0.0
-2.8371 0.0 0.0
-2.7405 0.7343 0.0
-2.457 1.4186 0.0
-2.0062 2.0062 0.0
-1.4186 2.457 0.0
-0.7343 2.7405 0.0
0.0 2.8371 0.0
0.7343 2.7405 0.0
1.4186 2.457 0.0
2.0062 2.0062 0.0
2.457 1.4186 0.0
2.7405 0.7343 0.0
2.8371 0.0 0.0
2.7405 -0.7343 0.0
2.457 -1.4186 0.0
2.0062 -2.0062 0.0
1.4186 -2.457 0.0
0.7343 -2.7405 0.0
0.0 -2.8371 0.0
4.0 5.0 0.0
3.0 5.0 0.0
2.0 5.0 0.0
1.0 5.0 0.0
0.0 5.0 0.0
-1.0 5.0 0.0
-2.0 5.0 0.0
-3.0 5.0 0.0
-4.0 5.0 0.0
-5.0 4.0 0.0
-5.0 3.0 0.0
-5.0 2.0 0.0
-5.0 1.0 0.0
-5.0 0.0 0.0
-5.0 -1.0 0.0
-5.0 -2.0 0.0
-5.0 -3.0 0.0
-5.0 -4.0 0.0
-4.0 -5.0 0.0
-3.0 -5.0 0.0
-2.0 -5.0 0.0
-1.0 -5.0 0.0
0.0 -5.0 0.0
1.0 -5.0 0.0
2.0 -5.0 0.0
3.0 -5.0 0.0
4.0 -5.0 0.0
5.0 -4.0 0.0
5.0 -3.0 0.0
5.0 -2.0 0.0
5.0 -1.0 0.0
5.0 0.0 0.0
5.0 1.0 0.0
5.0 2.0 0.0
5.0 3.0 0.0
5.0 4.0 0.0
3.2554 -3.093 0.0
3.2554 3.093 0.0
-3.093 -3.2554 0.0
-3.093 3.2554 0.0
-3.7629 -1.5588 0.0
1.5588 -3.7629 0.0
1.5588 3.7629 0.0
3.799 -1.4355 0.0
-1.4277 3.7847 0.0
3.7847 1.4277 0.0
-1.4277 -3.7847 0.0
-3.7629 1.5588 0.0
3.7755 -0.497 0.0
-3.7755 -0.497 0.0
0.497 3.7755 0.0
0.497 -3.7755 0.0
2.0773 -3.1328 0.0
2.0773 3.1328 0.0
-3.1328 -2.0773 0.0
-3.1328 2.0773 0.0
2.958 -2.1296 0.0
-2.1296 -2.958 0.0
2.958 2.1296 0.0
-2.1296 2.958 0.0
-0.4459 -3.5005 0.0
-3.4978 0.4622 0.0
-0.4459 3.5005 0.0
3.5005 0.4459 0.0
2.5343 -3.9347 0.0
-3.9347 -2.5343 0.0
2.5343 3.9347 0.0
-3.9347 2.5343 0.0
4.076 -2.6597 0.0
4.076 2.6597 0.0
-2.6597 -4.076 0.0
-2.6597 4.076 0.0
3.9951 -3.9881 0.0
3.9951 3.9881 0.0
-3.9881 -3.9951 0.0
-3.9881 3.9951 0.0
1.1182 3.1804 0.0
-3.1804 -1.1182 0.0
1.1182 -3.1804 0.0
3.216 -1.2565 0.0
-1.2968 -3.1306 0.0
-3.1182 1.2502 0.0
-1.2968 3.1306 0.0
3.1306 1.2968 0.0
-0.9898 -4.2507 0.0
-0.9898 4.2507 0.0
4.2507 0.9898 0.0
-4.2211 0.9952 0.0
3.2469 -4.2576 0.0
3.2469 4.2576 0.0
-4.2576 -3.2469 0.0
-4.2576 3.2469 0.0
-0.0383 4.2714 0.0
-0.0383 -4.2714 0.0
4.2714 0.0383 0.0
-4.2714 0.0383 0.0
0.9596 4.301 0.0
0.9596 -4.301 0.0
4.3036 -0.951 0.0
-4.301 -0.9596 0.0
4.2874 -3.3023 0.0
4.2874 3.3023 0.0
-3.3023 -4.2874 0.0
-3.3023 4.2874 0.0
1.9644 -4.3155 0.0
-4.3155 -1.9644 0.0
1.9644 4.3155 0.0
-4.3155 1.9644 0.0
4.322 -1.9462 0.0
4.322 1.9462 0.0
-1.9462 -4.322 0.0
-1.9462 4.322 0.0
0.3807 3.2068 0.0
3.2139 -0.4084 0.0
-3.2063 -0.3774 0.0
0.3807 -3.2068 0.0
3.6044 -2.0868 0.0
3.5683 2.1573 0.0
-2.1573 -3.5683 0.0
-2.1573 3.5683 0.0
4.4988 -4.497 0.0
4.4988 4.497 0.0
-4.497 -4.4988 0.0
-4.497 4.4988 0.0
2.3997 -2.4184 0.0
-2.4184 -2.3997 0.0
2.3997 2.4184 0.0
-2.4184 2.3997 0.0
5.0 15.0 0.0
-5.0 15.0 0.0
-0.7343 7.2595 0.0
-1.4186 7.543 0.0
-2.0062 7.9938 0.0
-2.457 8.5814 0.0
-2.7405 9.2657 0.0
-2.8371 10.0 0.0
-2.7405 10.7343 0.0
-2.457 11.4186 0.0
-2.0062 12.0062 0.0
-1.4186 12.457 0.0
-0.7343 12.7405 0.0
0.0 12.8371 0.0
0.7343 12.7405 0.0
1.4186 12.457 0.0
2.0062 12.0062 0.0
2.457 11.4186 0.0
2.7405 10.7343 0.0
2.8371 10.0 0.0
2.7405 9.2657 0.0
2.457 8.5814 0.0
2.0062 7.9938 0.0
1.4186 7.543 0.0
0.7343 7.2595 0.0
0.0 7.1629 0.0
4.0 15.0 0.0
3.0 15.0 0.0
2.0 15.0 0.0
1.0 15.0 0.0
0.0 15.0 0.0
-1.0 15.0 0.0
-2.0 15.0 0.0
-3.0 15.0 0.0
-4.0 15.0 0.0
-5.0 14.0 0.0
-5.0 13.0 0.0
-5.0 12.0 0.0
-5.0 11.0 0.0
-5.0 10.0 0.0
-5.0 9.0 0.0
-5.0 8.0 0.0
-5.0 7.0 0.0
-5.0 6.0 0.0
5.0 6.0 0.0
5.0 7.0 0.0
5.0 8.0 0.0
5.0 9.0 0.0
5.0 10.0 0.0
5.0 11.0 0.0
5.0 12.0 0.0
5.0 13.0 0.0
5.0 14.0 0.0
3.2554 6.907 0.0
3.2554 13.093 0.0
-3.093 6.7446 0.0
-3.093 13.2554 0.0
-3.7629 8.4412 0.0
1.5588 6.2371 0.0
1.5588 13.7629 0.0
3.799 8.5645 0.0
-1.4277 13.7847 0.0
3.7847 11.4277 0.0
-1.4277 6.2153 0.0
-3.7629 11.5588 0.0
3.7755 9.503 0.0
-3.7755 9.503 0.0
0.497 13.7755 0.0
0.497 6.2245 0.0
2.0773 6.8672 0.0
2.0773 13.1328 0.0
-3.1328 7.9227 0.0
-3.1328 12.0773 0.0
2.958 7.8704 0.0
-2.1296 7.042 0.0
2.958 12.1296 0.0
-2.1296 12.958 0.0
-0.4459 6.4995 0.0
-3.4978 10.4622 0.0
-0.4459 13.5005 0.0
3.5005 10.4459 0.0
2.5343 6.0653 0.0
-3.9347 7.4657 0.0
2.5343 13.9347 0.0
-3.9347 12.5343 0.0
4.076 7.3403 0.0
4.076 12.6597 0.0
-2.6597 5.924 0.0
-2.6597 14.076 0.0
3.9951 6.0119 0.0
3.9951 13.9881 0.0
-3.9881 6.0049 0.0
-3.9881 13.9951 0.0
1.1182 13.1804 0.0
-3.1804 8.8818 0.0
1.1182 6.8196 0.0
3.216 8.7435 0.0
-1.2968 6.8694 0.0
-3.1182 11.2502 0.0
-1.2968 13.1306 0.0
3.1306 11.2968 0.0
-0.9898 5.7493 0.0
-0.9898 14.2507 0.0
4.2507 10.9898 0.0
-4.2211 10.9952 0.0
3.2469 5.7424 0.0
3.2469 14.2576 0.0
-4.2576 6.7531 0.0
-4.2576 13.2469 0.0
-0.0383 14.2714 0.0
-0.0383 5.7286 0.0
4.2714 10.0383 0.0
-4.2714 10.0383 0.0
0.9596 14.301 0.0
0.9596 5.699 0.0
4.3036 9.049 0.0
-4.301 9.0404 0.0
4.2874 6.6977 0.0
4.2874 13.3023 0.0
-3.3023 5.7126 0.0
-3.3023 14.2874 0.0
1.9644 5.6845 0.0
-4.3155 8.0356 0.0
1.9644 14.3155 0.0
-4.3155 11.9644 0.0
4.322 8.0538 0.0
4.322 11.9462 0.0
-1.9462 5.678 0.0
-1.9462 14.322 0.0
0.3807 13.2068 0.0
3.2139 9.5916 0.0
-3.2063 9.6226 0.0
0.3807 6.7932 0.0
3.6044 7.9132 0.0
3.5683 12.1573 0.0
-2.1573 6.4317 0.0
-2.1573 13.5683 0.0
4.4988 5.503 0.0
4.4988 14.497 0.0
-4.497 5.5012 0.0
-4.497 14.4988 0.0
2.3997 7.5816 0.0
-2.4184 7.6003 0.0
2.3997 12.4184 0.0
-2.4184 12.3997 0.0
5.0 25.0 0.0
-5.0 25.0 0.0
-0.7343 17.2595 0.0
-1.4186 17.543 0.0
-2.0062 17.9938 0.0
-2.457 18.5814 0.0
-2.7405 19.2657 0.0
-2.8371 20.0 0.0
-2.7405 20.7343 0.0
-2.457 21.4186 0.0
-2.0062 22.0062 0.0
-1.4186 22.457 0.0
-0.7343 22.7405 0.0
0.0 22.8371 0.0
0.7343 22.7405 0.0
1.4186 22.457 0.0
2.0062 22.0062 0.0
2.457 21.4186 0.0
2.7405 20.7343 0.0
2.8371 20.0 0.0
2.7405 19.2657 0.0
2.457 18.5814 0.0
2.0062 17.9938 0.0
1.4186 17.543 0.0
0.7343 17.2595 0.0
0.0 17.1629 0.0
4.0 25.0 0.0
3.0 25.0 0.0
2.0 25.0 0.0
1.0 25.0 0.0
0.0 25.0 0.0
-1.0 25.0 0.0
-2.0 25.0 0.0
-3.0 25.0 0.0
-4.0 25.0 0.0
-5.0 24.0 0.0
-5.0 23.0 0.0
-5.0 22.0 0.0
-5.0 21.0 0.0
-5.0 20.0 0.0
-5.0 19.0 0.0
-5.0 18.0 0.0
-5.0 17.0 0.0
-5.0 16.0 0.0
5.0 16.0 0.0
5.0 17.0 0.0
5.0 18.0 0.0
5.0 19.0 0.0
5.0 20.0 0.0
5.0 21.0 0.0
5.0 22.0 0.0
5.0 23.0 0.0
5.0 24.0 0.0
3.2554 16.907 0.0
3.2554 23.093 0.0
-3.093 16.7446 0.0
-3.093 23.2554 0.0
-3.7629 18.4412 0.0
1.5588 16.2371 0.0
1.5588 23.7629 0.0
3.799 18.5645 0.0
-1.4277 23.7847 0.0
3.7847 21.4277 0.0
-1.4277 16.2153 0.0
-3.7629 21.5588 0.0
3.7755 19.503 0.0
-3.7755 19.503 0.0
0.497 23.7755 0.0
0.497 16.2245 0.0
2.0773 16.8672 0.0
2.0773 23.1328 0.0
-3.1328 17.9227 0.0
-3.1328 22.0773 0.0
2.958 17.8704 0.0
-2.1296 17.042 0.0
2.958 22.1296 0.0
-2.1296 22.958 0.0
-0.4459 16.4995 0.0
-3.4978 20.4622 0.0
-0.4459 23.5005 0.0
3.5005 20.4459 0.0
2.5343 16.0653 0.0
-3.9347 17.4657 0.0
2.5343 23.9347 0.0
-3.9347 22.5343 0.0
4.076 17.3403 0.0
4.076 22.6597 0.0
-2.6597 15.924 0.0
-2.6597 24.076 0.0
3.9951 16.0119 0.0
3.9951 23.9881 0.0
-3.9881 16.0049 0.0
-3.9881 23.9951 0.0
1.1182 23.1804 0.0
-3.1804 18.8818 0.0
1.1182 16.8196 0.0
3.216 18.7435 0.0
-1.2968 16.8694 0.0
-3.1182 21.2502 0.0
-1.2968 23.1306 0.0
3.1306 21.2968 0.0
-0.9898 15.7493 0.0
-0.9898 24.2507 0.0
4.2507 20.9898 0.0
-4.2211 20.9952 0.0
3.2469 15.7424 0.0
3.2469 24.2576 0.0
-4.2576 16.7531 0.0
-4.2576 23.2469 0.0
-0.0383 24.2714 0.0
-0.0383 15.7286 0.0
4.2714 20.0383 0.0
-4.2714 20.0383 0.0
0.9596 24.301 0.0
0.9596 15.699 0.0
4.3036 19.049 0.0
-4.301 19.0404 0.0
4.2874 16.6977 0.0
4.2874 23.3023 0.0
-3.3023 15.7126 0.0
-3.3023 24.2874 0.0
1.9644 15.6845 0.0
-4.3155 18.0356 0.0
1.9644 24.3155 0.0
-4.3155 21.9644 0.0
4.322 18.0538 0.0
4.322 21.9462 0.0
-1.9462 15.678 0.0
-1.9462 24.322 0.0
0.3807 23.2068 0.0
3.2139 19.5916 0.0
-3.2063 19.6226 0.0
0.3807 16.7932 0.0
3.6044 17.9132 0.0
3.5683 22.1573 0.0
-2.1573 16.4317 0.0
-2.1573 23.5683 0.0
4.4988 15.503 0.0
4.4988 24.497 0.0
-4.497 15.5012 0.0
-4.497 24.4988 0.0
2.3997 17.5816 0.0
-2.4184 17.6003 0.0
2.3997 22.4184 0.0
-2.4184 22.3997 0.0
15.0 5.0 0.0
15.0 -5.0 0.0
9.2657 -2.7405 0.0
8.5814 -2.457 0.0
7.9938 -2.0062 0.0
7.543 -1.4186 0.0
7.2595 -0.7343 0.0
7.1629 0.0 0.0
7.2595 0.7343 0.0
7.543 1.4186 0.0
7.9938 2.0062 0.0
8.5814 2.457 0.0
9.2657 2.7405 0.0
10.0 2.8371 0.0
10.7343 2.7405 0.0
11.4186 2.457 0.0
12.0062 2.0062 0.0
12.457 1.4186 0.0
12.7405 0.7343 0.0
12.8371 0.0 0.0
12.7405 -0.7343 0.0
12.457 -1.4186 0.0
12.0062 -2.0062 0.0
11.4186 -2.457 0.0
10.7343 -2.7405 0.0
10.0 -2.8371 0.0
14.0 5.0 0.0
13.0 5.0 0.0
12.0 5.0 0.0
11.0 5.0 0.0
10.0 5.0 0.0
9.0 5.0 0.0
8.0 5.0 0.0
7.0 5.0 0.0
6.0 5.0 0.0
6.0 -5.0 0.0
7.0 -5.0 0.0
8.0 -5.0 0.0
9.0 -5.0 0.0
10.0 -5.0 0.0
11.0 -5.0 0.0
12.0 -5.0 0.0
13.0 -5.0 0.0
14.0 -5.0 0.0
15.0 -4.0 0.0
15.0 -3.0 0.0
15.0 -2.0 0.0
15.0 -1.0 0.0
15.0 0.0 0.0
15.0 1.0 0.0
15.0 2.0 0.0
15.0 3.0 0.0
15.0 4.0 0.0
13.2554 -3.093 0.0
13.2554 3.093 0.0
6.907 -3.2554 0.0
6.907 3.2554 0.0
6.2371 -1.5588 0.0
11.5588 -3.7629 0.0
11.5588 3.7629 0.0
13.799 -1.4355 0.0
8.5723 3.7847 0.0
13.7847 1.4277 0.0
8.5723 -3.7847 0.0
6.2371 1.5588 0.0
13.7755 -0.497 0.0
6.2245 -0.497 0.0
10.497 3.7755 0.0
10.497 -3.7755 0.0
12.0773 -3.1328 0.0
12.0773 3.1328 0.0
6.8672 -2.0773 0.0
6.8672 2.0773 0.0
12.958 -2.1296 0.0
7.8704 -2.958 0.0
12.958 2.1296 0.0
7.8704 2.958 0.0
9.5541 -3.5005 0.0
6.5022 0.4622 0.0
9.5541 3.5005 0.0
13.5005 0.4459 0.0
12.5343 -3.9347 0.0
6.0653 -2.5343 0.0
12.5343 3.9347 0.0
6.0653 2.5343 0.0
14.076 -2.6597 0.0
14.076 2.6597 0.0
7.3403 -4.076 0.0
7.3403 4.076 0.0
13.9951 -3.9881 0.0
13.9951 3.9881 0.0
6.0119 -3.9951 0.0
6.0119 3.9951 0.0
11.1182 3.1804 0.0
6.8196 -1.1182 0.0
11.1182 -3.1804 0.0
13.216 -1.2565 0.0
8.7032 -3.1306 0.0
6.8818 1.2502 0.0
8.7032 3.1306 0.0
13.1306 1.2968 0.0
9.0102 -4.2507 0.0
9.0102 4.2507 0.0
14.2507 0.9898 0.0
5.7789 0.9952 0.0
13.2469 -4.2576 0.0
13.2469 4.2576 0.0
5.7424 -3.2469 0.0
5.7424 3.2469 0.0
9.9617 4.2714 0.0
9.9617 -4.2714 0.0
14.2714 0.0383 0.0
5.7286 0.0383 0.0
10.9596 4.301 0.0
10.9596 -4.301 0.0
14.3036 -0.951 0.0
5.699 -0.9596 0.0
14.2874 -3.3023 0.0
14.2874 3.3023 0.0
6.6977 -4.2874 0.0
6.6977 4.2874 0.0
[...]
POINT_DATA 1276
SCALARS Fourier_Temperature_[K] double 1
LOOKUP_TABLE default
-0.473361639473
0.473679203699
0.473679640754
-0.473361978292
0.122159264431
0.252468504497
0.32788139482
0.386657136072
0.431629280456
0.442885000268
0.431074494232
0.385456775987
0.32790873682
0.25247709876
0.122153543391
0.00120241038844
-0.116577629323
-0.245528950914
-0.327109767287
-0.383052666143
-0.430562633832
-0.442689228732
-0.430350666419
-0.383623436633
-0.326946259162
-0.24543920443
-0.116536849009
0.00122188538989
-0.41575635463
-0.313890761697
-0.233657500542
-0.146656686285
-0.0255515823802
0.121767369969
0.233058866038
0.316364172505
0.416695156683
0.471681187216
0.472978867387
0.487674485322
0.484559809304
0.488075403681
0.486526810892
0.487661853986
0.472987962098
0.471684281404
0.416696261378
0.316364630486
0.233059147025
0.121768654157
-0.0255473479814
-0.146649302641
-0.233651725305
-0.313882766716
-0.415756189871
-0.471721046627
-0.474371502201
-0.487564908139
-0.486557160426
-0.488079366327
-0.484767969601
-0.487587843358
-0.474381246413
-0.47171904888
-0.375383060748
-0.375096180799
0.360944883214
0.360940788061
0.441437963282
-0.195837109771
-0.195872873143
-0.446774318413
0.178891967987
-0.444035113828
0.178893419608
0.439330065186
-0.454152826927
0.453926485517
-0.0756107881335
-0.0755878133632
-0.270050902502
-0.27012248973
0.396394419701
0.3955490527
-0.386204050941
0.280441219652
-0.384933983014
0.280446336447
0.062499725309
0.448535498252
0.0624895040414
-0.448775897227
-0.296582737192
0.433847657232
-0.296613890984
0.433829458235
-0.441490765735
-0.441051386905
0.309900365416
0.309899764718
-0.42481602505
-0.42481069248
0.423627957809
0.423624186976
-0.160532963637
0.427665633221
-0.160485934856
-0.425023288532
0.191183495981
0.422137490259
0.191183628231
-0.419964095095
0.123366004663
0.123363026259
-0.466987397495
0.466223782119
-0.365056029081
-0.365063530097
0.444700702546
0.444692401481
0.0149550184551
0.0149627804513
-0.474170693462
0.474030624375
-0.109884102779
-0.109869577958
-0.4731276379
0.47273859115
-0.447899597865
-0.447881802822
0.365749578642
0.365747681764
-0.224547269141
0.470470569686
-0.224562781878
0.470064782638
-0.466564022018
-0.46603587559
0.228324278295
0.228323868032
-0.0577861747368
-0.443067094261
0.443566557856
-0.0577593471171
-0.421756747043
-0.419935518719
0.262976384218
0.262977356157
-0.460217401573
-0.460216347492
0.460439423025
0.46043814485
-0.332225821378
0.333788906835
-0.332371595531
0.333808726332
-0.473361639473
0.473679203699
0.122159264431
0.252468504497
0.32788139482
0.386657136072
0.431629280456
0.442885000268
0.431074494232
0.385456775987
0.32790873682
0.25247709876
0.122153543391
0.00120241038844
-0.116577629323
-0.245528950914
-0.327109767287
-0.383052666143
-0.430562633832
-0.442689228732
-0.430350666419
-0.383623436633
-0.326946259162
-0.24543920443
-0.116536849009
0.00122188538989
-0.41575635463
-0.313890761697
-0.233657500542
-0.146656686285
-0.0255515823802
0.121767369969
0.233058866038
0.316364172505
0.416695156683
0.471681187216
0.472978867387
0.487674485322
0.484559809304
0.488075403681
0.486526810892
0.487661853986
0.472987962098
0.471684281404
-0.471721046627
-0.474371502201
-0.487564908139
-0.486557160426
-0.488079366327
-0.484767969601
-0.487587843358
-0.474381246413
-0.47171904888
-0.375383060748
-0.375096180799
0.360944883214
0.360940788061
0.441437963282
-0.195837109771
-0.195872873143
-0.446774318413
0.178891967987
-0.444035113828
0.178893419608
0.439330065186
-0.454152826927
0.453926485517
-0.0756107881335
-0.0755878133632
-0.270050902502
-0.27012248973
0.396394419701
0.3955490527
-0.386204050941
0.280441219652
-0.384933983014
0.280446336447
0.062499725309
0.448535498252
0.0624895040414
-0.448775897227
-0.296582737192
0.433847657232
-0.296613890984
0.433829458235
-0.441490765735
-0.441051386905
0.309900365416
0.309899764718
-0.42481602505
-0.42481069248
0.423627957809
0.423624186976
-0.160532963637
0.427665633221
-0.160485934856
-0.425023288532
0.191183495981
0.422137490259
0.191183628231
-0.419964095095
0.123366004663
0.123363026259
-0.466987397495
0.466223782119
-0.365056029081
-0.365063530097
0.444700702546
0.444692401481
0.0149550184551
0.0149627804513
-0.474170693462
0.474030624375
-0.109884102779
-0.109869577958
-0.4731276379
0.47273859115
-0.447899597865
-0.447881802822
0.365749578642
0.365747681764
-0.224547269141
0.470470569686
-0.224562781878
0.470064782638
-0.466564022018
-0.46603587559
0.228324278295
0.228323868032
-0.0577861747368
-0.443067094261
0.443566557856
-0.0577593471171
-0.421756747043
-0.419935518719
0.262976384218
0.262977356157
-0.460217401573
-0.460216347492
0.460439423025
0.46043814485
-0.332225821378
0.333788906835
-0.332371595531
0.333808726332
-0.473361639473
0.473679203699
0.122159264431
0.252468504497
0.32788139482
0.386657136072
0.431629280456
0.442885000268
0.431074494232
0.385456775987
0.32790873682
0.25247709876
0.122153543391
0.00120241038844
-0.116577629323
-0.245528950914
-0.327109767287
-0.383052666143
-0.430562633832
-0.442689228732
-0.430350666419
-0.383623436633
-0.326946259162
-0.24543920443
-0.116536849009
0.00122188538989
-0.41575635463
-0.313890761697
-0.233657500542
-0.146656686285
-0.0255515823802
0.121767369969
0.233058866038
0.316364172505
0.416695156683
0.471681187216
0.472978867387
0.487674485322
0.484559809304
0.488075403681
0.486526810892
0.487661853986
0.472987962098
0.471684281404
-0.471721046627
-0.474371502201
-0.487564908139
-0.486557160426
-0.488079366327
-0.484767969601
-0.487587843358
-0.474381246413
-0.47171904888
-0.375383060748
-0.375096180799
0.360944883214
0.360940788061
0.441437963282
-0.195837109771
-0.195872873143
-0.446774318413
0.178891967987
-0.444035113828
0.178893419608
0.439330065186
-0.454152826927
0.453926485517
-0.0756107881335
-0.0755878133632
-0.270050902502
-0.27012248973
0.396394419701
0.3955490527
-0.386204050941
0.280441219652
-0.384933983014
0.280446336447
0.062499725309
0.448535498252
0.0624895040414
-0.448775897227
-0.296582737192
0.433847657232
-0.296613890984
0.433829458235
-0.441490765735
-0.441051386905
0.309900365416
0.309899764718
-0.42481602505
-0.42481069248
0.423627957809
0.423624186976
-0.160532963637
0.427665633221
-0.160485934856
-0.425023288532
0.191183495981
0.422137490259
0.191183628231
-0.419964095095
0.123366004663
0.123363026259
-0.466987397495
0.466223782119
-0.365056029081
-0.365063530097
0.444700702546
0.444692401481
0.0149550184551
0.0149627804513
-0.474170693462
0.474030624375
-0.109884102779
-0.109869577958
-0.4731276379
0.47273859115
-0.447899597865
-0.447881802822
0.365749578642
0.365747681764
-0.224547269141
0.470470569686
-0.224562781878
0.470064782638
-0.466564022018
-0.46603587559
0.228324278295
0.228323868032
-0.0577861747368
-0.443067094261
0.443566557856
-0.0577593471171
-0.421756747043
-0.419935518719
0.262976384218
0.262977356157
-0.460217401573
-0.460216347492
0.460439423025
0.46043814485
-0.332225821378
0.333788906835
-0.332371595531
0.333808726332
-1.47336163947
-1.47336197829
-0.877840735569
-0.747531495503
-0.67211860518
-0.613342863928
-0.568370719544
-0.557114999732
-0.568925505768
-0.614543224013
-0.67209126318
-0.74752290124
-0.877846456609
-0.998797589612
-1.11657762932
-1.24552895091
-1.32710976729
-1.38305266614
-1.43056263383
-1.44268922873
-1.43035066642
-1.38362343663
-1.32694625916
-1.24543920443
-1.11653684901
-0.99877811461
-1.41575635463
-1.3138907617
-1.23365750054
-1.14665668629
-1.02555158238
-0.878232630031
-0.766941133962
-0.683635827495
-0.583304843317
-0.583303738622
-0.683635369514
-0.766940852975
-0.878231345843
-1.02554734798
-1.14664930264
-1.23365172531
-1.31388276672
-1.41575618987
-1.47172104663
-1.4743715022
-1.48756490814
-1.48655716043
-1.48807936633
-1.4847679696
-1.48758784336
-1.47438124641
-1.47171904888
-1.37538306075
-1.3750961808
-0.639055116786
-0.639059211939
-0.558562036718
-1.19583710977
-1.19587287314
-1.44677431841
-0.821108032013
-1.44403511383
-0.821106580392
-0.560669934814
-1.45415282693
-0.546073514483
-1.07561078813
-1.07558781336
-1.2700509025
-1.27012248973
-0.603605580299
-0.6044509473
-1.38620405094
-0.719558780348
-1.38493398301
-0.719553663553
-0.937500274691
-0.551464501748
-0.937510495959
-1.44877589723
-1.29658273719
-0.566152342768
-1.29661389098
-0.566170541765
-1.44149076574
-1.4410513869
-0.690099634584
-0.690100235282
-1.42481602505
-1.42481069248
-0.576372042191
-0.576375813024
-1.16053296364
-0.572334366779
-1.16048593486
-1.42502328853
-0.808816504019
-0.577862509741
-0.808816371769
-1.41996409509
-0.876633995337
-0.876636973741
-1.4669873975
-0.533776217881
-1.36505602908
-1.3650635301
-0.555299297454
-0.555307598519
-0.985044981545
-0.985037219549
-1.47417069346
-0.525969375625
-1.10988410278
-1.10986957796
-1.4731276379
-0.52726140885
-1.44789959787
-1.44788180282
-0.634250421358
-0.634252318236
-1.22454726914
-0.529529430314
-1.22456278188
-0.529935217362
-1.46656402202
-1.46603587559
-0.771675721705
-0.771676131968
-1.05778617474
-1.44306709426
-0.556433442144
-1.05775934712
-1.42175674704
-1.41993551872
-0.737023615782
-0.737022643843
-1.46021740157
-1.46021634749
-0.539560576975
-0.53956185515
-1.33222582138
-0.666211093165
-1.33237159553
-0.666191273668
-1.47336163947
-0.877840735569
-0.747531495503
-0.67211860518
-0.613342863928
-0.568370719544
-0.557114999732
-0.568925505768
-0.614543224013
-0.67209126318
-0.74752290124
-0.877846456609
-0.998797589612
-1.11657762932
-1.24552895091
-1.32710976729
-1.38305266614
-1.43056263383
-1.44268922873
-1.43035066642
-1.38362343663
-1.32694625916
-1.24543920443
-1.11653684901
-0.99877811461
-1.41575635463
-1.3138907617
-1.23365750054
-1.14665668629
-1.02555158238
-0.878232630031
-0.766941133962
-0.683635827495
-0.583304843317
-1.47172104663
-1.4743715022
-1.48756490814
-1.48655716043
-1.48807936633
-1.4847679696
-1.48758784336
-1.47438124641
-1.47171904888
-1.37538306075
-1.3750961808
-0.639055116786
-0.639059211939
-0.558562036718
-1.19583710977
-1.19587287314
-1.44677431841
-0.821108032013
-1.44403511383
-0.821106580392
-0.560669934814
-1.45415282693
-0.546073514483
-1.07561078813
-1.07558781336
-1.2700509025
-1.27012248973
-0.603605580299
-0.6044509473
-1.38620405094
-0.719558780348
-1.38493398301
-0.719553663553
-0.937500274691
-0.551464501748
-0.937510495959
-1.44877589723
-1.29658273719
-0.566152342768
-1.29661389098
-0.566170541765
-1.44149076574
-1.4410513869
-0.690099634584
-0.690100235282
-1.42481602505
-1.42481069248
-0.576372042191
-0.576375813024
-1.16053296364
-0.572334366779
-1.16048593486
-1.42502328853
-0.808816504019
-0.577862509741
-0.808816371769
-1.41996409509
-0.876633995337
-0.876636973741
-1.4669873975
-0.533776217881
-1.36505602908
-1.3650635301
-0.555299297454
-0.555307598519
-0.985044981545
-0.985037219549
-1.47417069346
-0.525969375625
-1.10988410278
-1.10986957796
-1.4731276379
-0.52726140885
-1.44789959787
-1.44788180282
-0.634250421358
-0.634252318236
-1.22454726914
-0.529529430314
-1.22456278188
-0.529935217362
-1.46656402202
-1.46603587559
-0.771675721705
-0.771676131968
-1.05778617474
-1.44306709426
-0.556433442144
-1.05775934712
-1.42175674704
-1.41993551872
-0.737023615782
-0.737022643843
-1.46021740157
-1.46021634749
-0.539560576975
-0.53956185515
-1.33222582138
-0.666211093165
-1.33237159553
-0.666191273668
-1.47336163947
-0.877840735569
-0.747531495503
-0.67211860518
-0.613342863928
-0.568370719544
-0.557114999732
-0.568925505768
-0.614543224013
-0.67209126318
-0.74752290124
-0.877846456609
-0.998797589612
-1.11657762932
-1.24552895091
-1.32710976729
-1.38305266614
-1.43056263383
-1.44268922873
-1.43035066642
-1.38362343663
-1.32694625916
-1.24543920443
-1.11653684901
-0.99877811461
-1.41575635463
-1.3138907617
-1.23365750054
-1.14665668629
-1.02555158238
-0.878232630031
-0.766941133962
-0.683635827495
-0.583304843317
-1.47172104663
-1.4743715022
-1.48756490814
-1.48655716043
-1.48807936633
-1.4847679696
-1.48758784336
-1.47438124641
-1.47171904888
-1.37538306075
-1.3750961808
-0.639055116786
-0.639059211939
-0.558562036718
-1.19583710977
-1.19587287314
-1.44677431841
-0.821108032013
-1.44403511383
-0.821106580392
-0.560669934814
-1.45415282693
-0.546073514483
-1.07561078813
-1.07558781336
-1.2700509025
-1.27012248973
-0.603605580299
-0.6044509473
-1.38620405094
-0.719558780348
-1.38493398301
-0.719553663553
-0.937500274691
-0.551464501748
-0.937510495959
-1.44877589723
-1.29658273719
-0.566152342768
-1.29661389098
-0.566170541765
-1.44149076574
-1.4410513869
-0.690099634584
-0.690100235282
-1.42481602505
-1.42481069248
-0.576372042191
-0.576375813024
-1.16053296364
-0.572334366779
-1.16048593486
-1.42502328853
-0.808816504019
-0.577862509741
-0.808816371769
-1.41996409509
-0.876633995337
-0.876636973741
-1.4669873975
-0.533776217881
-1.36505602908
-1.3650635301
-0.555299297454
-0.555307598519
-0.985044981545
-0.985037219549
-1.47417069346
-0.525969375625
-1.10988410278
-1.10986957796
-1.4731276379
-0.52726140885
-1.44789959787
-1.44788180282
-0.634250421358
-0.634252318236
-1.22454726914
-0.529529430314
-1.22456278188
-0.529935217362
-1.46656402202
-1.46603587559
-0.771675721705
-0.771676131968
-1.05778617474
-1.44306709426
-0.556433442144
-1.05775934712
-1.42175674704
-1.41993551872
-0.737023615782
-0.737022643843
-1.46021740157
-1.46021634749
-0.539560576975
-0.53956185515
-1.33222582138
-0.666211093165
-1.33237159553
-0.666191273668
-2.47336163947
-2.47336197829
-1.87784073557
-1.7475314955
-1.67211860518
-1.61334286393
-1.56837071954
-1.55711499973
-1.56892550577
-1.61454322401
-1.67209126318
-1.74752290124
-1.87784645661
-1.99879758961
-2.11657762932
-2.24552895091
-2.32710976729
-2.38305266614
-2.43056263383
-2.44268922873
-2.43035066642
-2.38362343663
-2.32694625916
-2.24543920443
-2.11653684901
-1.99877811461
-2.41575635463
-2.3138907617
-2.23365750054
-2.14665668629
-2.02555158238
-1.87823263003
-1.76694113396
-1.6836358275
-1.58330484332
-1.58330373862
-1.68363536951
-1.76694085298
-1.87823134584
-2.02554734798
-2.14664930264
-2.23365172531
-2.31388276672
-2.41575618987
-2.47172104663
-2.4743715022
-2.48756490814
-2.48655716043
-2.48807936633
-2.4847679696
-2.48758784336
-2.47438124641
-2.47171904888
-2.37538306075
-2.3750961808
-1.63905511679
-1.63905921194
-1.55856203672
-2.19583710977
-2.19587287314
-2.44677431841
-1.82110803201
-2.44403511383
-1.82110658039
-1.56066993481
-2.45415282693
-1.54607351448
-2.07561078813
-2.07558781336
-2.2700509025
-2.27012248973
-1.6036055803
-1.6044509473
-2.38620405094
-1.71955878035
-2.38493398301
-1.71955366355
-1.93750027469
-1.55146450175
-1.93751049596
-2.44877589723
-2.29658273719
-1.56615234277
-2.29661389098
-1.56617054177
-2.44149076574
-2.4410513869
-1.69009963458
-1.69010023528
-2.42481602505
-2.42481069248
-1.57637204219
-1.57637581302
-2.16053296364
-1.57233436678
-2.16048593486
-2.42502328853
-1.80881650402
-1.57786250974
-1.80881637177
-2.41996409509
-1.87663399534
-1.87663697374
-2.4669873975
-1.53377621788
-2.36505602908
-2.3650635301
-1.55529929745
-1.55530759852
-1.98504498154
-1.98503721955
-2.47417069346
-1.52596937562
-2.10988410278
-2.10986957796
-2.4731276379
-1.52726140885
-2.44789959787
-2.44788180282
-1.63425042136
-1.63425231824
-2.22454726914
-1.52952943031
-2.22456278188
-1.52993521736
-2.46656402202
-2.46603587559
-1.7716757217
-1.77167613197
-2.05778617474
-2.44306709426
-1.55643344214
-2.05775934712
-2.42175674704
-2.41993551872
-1.73702361578
-1.73702264384
-2.46021740157
-2.46021634749
-1.53956057698
-1.53956185515
-2.33222582138
-1.66621109316
-2.33237159553
-1.66619127367
-2.47336163947
-1.87784073557
-1.7475314955
-1.67211860518
-1.61334286393
-1.56837071954
-1.55711499973
-1.56892550577
-1.61454322401
-1.67209126318
-1.74752290124
-1.87784645661
-1.99879758961
-2.11657762932
-2.24552895091
-2.32710976729
-2.38305266614
-2.43056263383
-2.44268922873
-2.43035066642
-2.38362343663
-2.32694625916
-2.24543920443
-2.11653684901
-1.99877811461
-2.41575635463
-2.3138907617
-2.23365750054
-2.14665668629
-2.02555158238
-1.87823263003
-1.76694113396
-1.6836358275
-1.58330484332
-2.47172104663
-2.4743715022
-2.48756490814
-2.48655716043
-2.48807936633
-2.4847679696
-2.48758784336
-2.47438124641
-2.47171904888
-2.37538306075
-2.3750961808
-1.63905511679
-1.63905921194
-1.55856203672
-2.19583710977
-2.19587287314
-2.44677431841
-1.82110803201
-2.44403511383
-1.82110658039
-1.56066993481
-2.45415282693
-1.54607351448
-2.07561078813
-2.07558781336
-2.2700509025
-2.27012248973
-1.6036055803
-1.6044509473
-2.38620405094
-1.71955878035
-2.38493398301
-1.71955366355
-1.93750027469
-1.55146450175
-1.93751049596
-2.44877589723
-2.29658273719
-1.56615234277
-2.29661389098
-1.56617054177
-2.44149076574
-2.4410513869
-1.69009963458
-1.69010023528
-2.42481602505
-2.42481069248
-1.57637204219
-1.57637581302
-2.16053296364
-1.57233436678
-2.16048593486
-2.42502328853
-1.80881650402
-1.57786250974
-1.80881637177
-2.41996409509
-1.87663399534
-1.87663697374
-2.4669873975
-1.53377621788
-2.36505602908
-2.3650635301
-1.55529929745
-1.55530759852
-1.98504498154
-1.98503721955
-2.47417069346
-1.52596937562
-2.10988410278
-2.10986957796
-2.4731276379
-1.52726140885
-2.44789959787
-2.44788180282
-1.63425042136
-1.63425231824
-2.22454726914
-1.52952943031
-2.22456278188
-1.52993521736
-2.46656402202
-2.46603587559
-1.7716757217
-1.77167613197
-2.05778617474
-2.44306709426
-1.55643344214
-2.05775934712
-2.42175674704
-2.41993551872
-1.73702361578
-1.73702264384
-2.46021740157
-2.46021634749
-1.53956057698
-1.53956185515
-2.33222582138
-1.66621109316
-2.33237159553
-1.66619127367
-2.47336163947
-1.87784073557
-1.7475314955
-1.67211860518
-1.61334286393
-1.56837071954
-1.55711499973
-1.56892550577
-1.61454322401
-1.67209126318
-1.74752290124
-1.87784645661
-1.99879758961
-2.11657762932
-2.24552895091
-2.32710976729
-2.38305266614
-2.43056263383
-2.44268922873
-2.43035066642
-2.38362343663
-2.32694625916
-2.24543920443
-2.11653684901
-1.99877811461
-2.41575635463
-2.3138907617
-2.23365750054
-2.14665668629
-2.02555158238
-1.87823263003
-1.76694113396
-1.6836358275
-1.58330484332
-2.47172104663
-2.4743715022
-2.48756490814
-2.48655716043
-2.48807936633
-2.4847679696
-2.48758784336
-2.47438124641
-2.47171904888
-2.37538306075
-2.3750961808
-1.63905511679
-1.63905921194
-1.55856203672
-2.19583710977
-2.19587287314
-2.44677431841
-1.82110803201
-2.44403511383
-1.82110658039
-1.56066993481
-2.45415282693
-1.54607351448
-2.07561078813
-2.07558781336
-2.2700509025
-2.27012248973
-1.6036055803
-1.6044509473
-2.38620405094
-1.71955878035
-2.38493398301
-1.71955366355
-1.93750027469
-1.55146450175
-1.93751049596
-2.44877589723
-2.29658273719
-1.56615234277
-2.29661389098
-1.56617054177
-2.44149076574
-2.4410513869
-1.69009963458
-1.69010023528
-2.42481602505
-2.42481069248
-1.57637204219
-1.57637581302
-2.16053296364
-1.57233436678
-2.16048593486
-2.42502328853
-1.80881650402
-1.57786250974
-1.80881637177
-2.41996409509
-1.87663399534
-1.87663697374
-2.4669873975
-1.53377621788
-2.36505602908
-2.3650635301
-1.55529929745
-1.55530759852
-1.98504498154
-1.98503721955
-2.47417069346
-1.52596937562
-2.10988410278
-2.10986957796
-2.4731276379
-1.52726140885
-2.44789959787
-2.44788180282
-1.63425042136
-1.63425231824
-2.22454726914
-1.52952943031
-2.22456278188
-1.52993521736
-2.46656402202
-2.46603587559
-1.7716757217
-1.77167613197
-2.05778617474
-2.44306709426
-1.55643344214
-2.05775934712
-2.42175674704
-2.41993551872
-1.73702361578
-1.73702264384
-2.46021740157
-2.46021634749
-1.53956057698
-1.53956185515
-2.33222582138
-1.66621109316
-2.33237159553
-1.66619127367
VECTORS Thermal_Flux_[W/m/m] double
0.0792508808574 -0.000755728191204 0.0
0.0792982419886 0.000790023619357 0.0
0.0792959845845 -0.000792775105081 0.0
0.0792490901889 0.000758190862866 0.0
0.139813481144 -0.0348326278887 0.0
0.0971413462499 -0.0587619836774 0.0
0.0610474493852 -0.0634581019496 0.0
0.0466776527853 -0.043507619018 0.0
0.00974295685308 -0.0263010319186 0.0
0.00514379964741 0.000197256945506 0.0
0.0150129178578 0.0258895857078 0.0