# vtk DataFile Version 2.0
Really cool data
ASCII
DATASET UNSTRUCTURED_GRID
POINTS 1240 float
5.0 5.0 0.0
-5.0 5.0 0.0
-5.0 -5.0 0.0
5.0 -5.0 0.0
-0.3703 -2.8129 0.0
-1.0857 -2.6212 0.0
-1.7271 -2.2509 0.0
-2.2509 -1.7271 0.0
-2.6212 -1.0857 0.0
-2.8129 -0.3703 0.0
-2.8129 0.3703 0.0
-2.6212 1.0857 0.0
-2.2509 1.7271 0.0
-1.7271 2.2509 0.0
-1.0857 2.6212 0.0
-0.3703 2.8129 0.0
0.3703 2.8129 0.0
1.0857 2.6212 0.0
1.7271 2.2509 0.0
2.2509 1.7271 0.0
2.6212 1.0857 0.0
2.8129 0.3703 0.0
2.8129 -0.3703 0.0
2.6212 -1.0857 0.0
2.2509 -1.7271 0.0
1.7271 -2.2509 0.0
1.0857 -2.6212 0.0
0.3703 -2.8129 0.0
4.0 5.0 0.0
3.0 5.0 0.0
2.0 5.0 0.0
1.0 5.0 0.0
0.0 5.0 0.0
-1.0 5.0 0.0
-2.0 5.0 0.0
-3.0 5.0 0.0
-4.0 5.0 0.0
-5.0 4.0 0.0
-5.0 3.0 0.0
-5.0 2.0 0.0
-5.0 1.0 0.0
-5.0 0.0 0.0
-5.0 -1.0 0.0
-5.0 -2.0 0.0
-5.0 -3.0 0.0
-5.0 -4.0 0.0
-4.0 -5.0 0.0
-3.0 -5.0 0.0
-2.0 -5.0 0.0
-1.0 -5.0 0.0
0.0 -5.0 0.0
1.0 -5.0 0.0
2.0 -5.0 0.0
3.0 -5.0 0.0
4.0 -5.0 0.0
5.0 -4.0 0.0
5.0 -3.0 0.0
5.0 -2.0 0.0
5.0 -1.0 0.0
5.0 0.0 0.0
5.0 1.0 0.0
5.0 2.0 0.0
5.0 3.0 0.0
5.0 4.0 0.0
3.4833 3.4833 0.0
3.4833 -3.4833 0.0
-3.4833 -3.4833 0.0
-3.4833 3.4833 0.0
3.5391 -1.9577 0.0
1.9577 -3.5391 0.0
-3.5391 -1.9577 0.0
1.9577 3.5391 0.0
-1.9577 -3.5391 0.0
3.5391 1.9577 0.0
-3.5391 1.9577 0.0
-1.9577 3.5391 0.0
-4.0245 0.0 0.0
0.0 4.0245 0.0
4.0245 0.0 0.0
0.0 -4.0245 0.0
-0.9139 3.4661 0.0
-3.4661 -0.9139 0.0
3.4661 0.9139 0.0
0.9139 3.4661 0.0
-0.9139 -3.4661 0.0
-3.4661 0.9139 0.0
3.4661 -0.9139 0.0
0.9139 -3.4661 0.0
2.3936 -2.3936 0.0
-2.3936 -2.3936 0.0
2.3936 2.3936 0.0
-2.3936 2.3936 0.0
3.9612 -3.9612 0.0
3.9612 3.9612 0.0
-3.9612 -3.9612 0.0
-3.9612 3.9612 0.0
2.6251 -4.1084 0.0
4.1084 -2.6251 0.0
2.6251 4.1084 0.0
-4.1084 -2.6251 0.0
4.1084 2.6251 0.0
-2.6251 -4.1084 0.0
-2.6251 4.1084 0.0
-4.1084 2.6251 0.0
1.5222 -4.2383 0.0
4.2383 -1.5222 0.0
-4.2383 -1.5222 0.0
1.5222 4.2383 0.0
-1.5222 -4.2383 0.0
4.2383 1.5222 0.0
-1.5222 4.2383 0.0
-4.2383 1.5222 0.0
0.6872 -4.3458 0.0
4.3458 -0.6872 0.0
0.6872 4.3458 0.0
-4.3458 -0.6872 0.0
-0.6872 -4.3458 0.0
4.3458 0.6872 0.0
-0.6872 4.3458 0.0
-4.3458 0.6872 0.0
2.9021 -1.6755 0.0
1.6755 -2.9021 0.0
-2.9021 -1.6755 0.0
1.6755 2.9021 0.0
-1.6755 -2.9021 0.0
2.9021 1.6755 0.0
-2.9021 1.6755 0.0
-1.6755 2.9021 0.0
0.0 3.3165 0.0
-3.3165 0.0 0.0
3.3165 0.0 0.0
0.0 -3.3165 0.0
4.3994 -3.3928 0.0
3.3928 -4.3994 0.0
3.3928 4.3994 0.0
-4.3994 -3.3928 0.0
4.3994 3.3928 0.0
-3.3928 -4.3994 0.0
-3.3928 4.3994 0.0
-4.3994 3.3928 0.0
2.5808 -3.2048 0.0
3.2045 -2.5802 0.0
2.5808 3.2048 0.0
-3.2048 -2.5808 0.0
3.2045 2.5802 0.0
-2.5802 -3.2045 0.0
-3.2048 2.5808 0.0
-2.5802 3.2045 0.0
4.4698 -4.4698 0.0
4.4727 4.4727 0.0
-4.4698 -4.4698 0.0
-4.4698 4.4698 0.0
5.0 15.0 0.0
-5.0 15.0 0.0
-0.3703 7.1871 0.0
-1.0857 7.3788 0.0
-1.7271 7.7491 0.0
-2.2509 8.2729 0.0
-2.6212 8.9143 0.0
-2.8129 9.6297 0.0
-2.8129 10.3703 0.0
-2.6212 11.0857 0.0
-2.2509 11.7271 0.0
-1.7271 12.2509 0.0
-1.0857 12.6212 0.0
-0.3703 12.8129 0.0
0.3703 12.8129 0.0
1.0857 12.6212 0.0
1.7271 12.2509 0.0
2.2509 11.7271 0.0
2.6212 11.0857 0.0
2.8129 10.3703 0.0
2.8129 9.6297 0.0
2.6212 8.9143 0.0
2.2509 8.2729 0.0
1.7271 7.7491 0.0
1.0857 7.3788 0.0
0.3703 7.1871 0.0
4.0 15.0 0.0
3.0 15.0 0.0
2.0 15.0 0.0
1.0 15.0 0.0
0.0 15.0 0.0
-1.0 15.0 0.0
-2.0 15.0 0.0
-3.0 15.0 0.0
-4.0 15.0 0.0
-5.0 14.0 0.0
-5.0 13.0 0.0
-5.0 12.0 0.0
-5.0 11.0 0.0
-5.0 10.0 0.0
-5.0 9.0 0.0
-5.0 8.0 0.0
-5.0 7.0 0.0
-5.0 6.0 0.0
5.0 6.0 0.0
5.0 7.0 0.0
5.0 8.0 0.0
5.0 9.0 0.0
5.0 10.0 0.0
5.0 11.0 0.0
5.0 12.0 0.0
5.0 13.0 0.0
5.0 14.0 0.0
3.4833 13.4833 0.0
3.4833 6.5167 0.0
-3.4833 6.5167 0.0
-3.4833 13.4833 0.0
3.5391 8.0423 0.0
1.9577 6.4609 0.0
-3.5391 8.0423 0.0
1.9577 13.5391 0.0
-1.9577 6.4609 0.0
3.5391 11.9577 0.0
-3.5391 11.9577 0.0
-1.9577 13.5391 0.0
-4.0245 10.0 0.0
0.0 14.0245 0.0
4.0245 10.0 0.0
0.0 5.9755 0.0
-0.9139 13.4661 0.0
-3.4661 9.0861 0.0
3.4661 10.9139 0.0
0.9139 13.4661 0.0
-0.9139 6.5339 0.0
-3.4661 10.9139 0.0
3.4661 9.0861 0.0
0.9139 6.5339 0.0
2.3936 7.6064 0.0
-2.3936 7.6064 0.0
2.3936 12.3936 0.0
-2.3936 12.3936 0.0
3.9612 6.0388 0.0
3.9612 13.9612 0.0
-3.9612 6.0388 0.0
-3.9612 13.9612 0.0
2.6251 5.8916 0.0
4.1084 7.3749 0.0
2.6251 14.1084 0.0
-4.1084 7.3749 0.0
4.1084 12.6251 0.0
-2.6251 5.8916 0.0
-2.6251 14.1084 0.0
-4.1084 12.6251 0.0
1.5222 5.7617 0.0
4.2383 8.4778 0.0
-4.2383 8.4778 0.0
1.5222 14.2383 0.0
-1.5222 5.7617 0.0
4.2383 11.5222 0.0
-1.5222 14.2383 0.0
-4.2383 11.5222 0.0
0.6872 5.6542 0.0
4.3458 9.3128 0.0
0.6872 14.3458 0.0
-4.3458 9.3128 0.0
-0.6872 5.6542 0.0
4.3458 10.6872 0.0
-0.6872 14.3458 0.0
-4.3458 10.6872 0.0
2.9021 8.3245 0.0
1.6755 7.0979 0.0
-2.9021 8.3245 0.0
1.6755 12.9021 0.0
-1.6755 7.0979 0.0
2.9021 11.6755 0.0
-2.9021 11.6755 0.0
-1.6755 12.9021 0.0
0.0 13.3165 0.0
-3.3165 10.0 0.0
3.3165 10.0 0.0
0.0 6.6835 0.0
4.3994 6.6072 0.0
3.3928 5.6006 0.0
3.3928 14.3994 0.0
-4.3994 6.6072 0.0
4.3994 13.3928 0.0
-3.3928 5.6006 0.0
-3.3928 14.3994 0.0
-4.3994 13.3928 0.0
2.5808 6.7952 0.0
3.2045 7.4198 0.0
2.5808 13.2048 0.0
-3.2048 7.4192 0.0
3.2045 12.5802 0.0
-2.5802 6.7955 0.0
-3.2048 12.5808 0.0
-2.5802 13.2045 0.0
4.4698 5.5302 0.0
4.4727 14.4727 0.0
-4.4698 5.5302 0.0
-4.4698 14.4698 0.0
5.0 25.0 0.0
-5.0 25.0 0.0
-0.3703 17.1871 0.0
-1.0857 17.3788 0.0
-1.7271 17.7491 0.0
-2.2509 18.2729 0.0
-2.6212 18.9143 0.0
-2.8129 19.6297 0.0
-2.8129 20.3703 0.0
-2.6212 21.0857 0.0
-2.2509 21.7271 0.0
-1.7271 22.2509 0.0
-1.0857 22.6212 0.0
-0.3703 22.8129 0.0
0.3703 22.8129 0.0
1.0857 22.6212 0.0
1.7271 22.2509 0.0
2.2509 21.7271 0.0
2.6212 21.0857 0.0
2.8129 20.3703 0.0
2.8129 19.6297 0.0
2.6212 18.9143 0.0
2.2509 18.2729 0.0
1.7271 17.7491 0.0
1.0857 17.3788 0.0
0.3703 17.1871 0.0
4.0 25.0 0.0
3.0 25.0 0.0
2.0 25.0 0.0
1.0 25.0 0.0
0.0 25.0 0.0
-1.0 25.0 0.0
-2.0 25.0 0.0
-3.0 25.0 0.0
-4.0 25.0 0.0
-5.0 24.0 0.0
-5.0 23.0 0.0
-5.0 22.0 0.0
-5.0 21.0 0.0
-5.0 20.0 0.0
-5.0 19.0 0.0
-5.0 18.0 0.0
-5.0 17.0 0.0
-5.0 16.0 0.0
5.0 16.0 0.0
5.0 17.0 0.0
5.0 18.0 0.0
5.0 19.0 0.0
5.0 20.0 0.0
5.0 21.0 0.0
5.0 22.0 0.0
5.0 23.0 0.0
5.0 24.0 0.0
3.4833 23.4833 0.0
3.4833 16.5167 0.0
-3.4833 16.5167 0.0
-3.4833 23.4833 0.0
3.5391 18.0423 0.0
1.9577 16.4609 0.0
-3.5391 18.0423 0.0
1.9577 23.5391 0.0
-1.9577 16.4609 0.0
3.5391 21.9577 0.0
-3.5391 21.9577 0.0
-1.9577 23.5391 0.0
-4.0245 20.0 0.0
0.0 24.0245 0.0
4.0245 20.0 0.0
0.0 15.9755 0.0
-0.9139 23.4661 0.0
-3.4661 19.0861 0.0
3.4661 20.9139 0.0
0.9139 23.4661 0.0
-0.9139 16.5339 0.0
-3.4661 20.9139 0.0
3.4661 19.0861 0.0
0.9139 16.5339 0.0
2.3936 17.6064 0.0
-2.3936 17.6064 0.0
2.3936 22.3936 0.0
-2.3936 22.3936 0.0
3.9612 16.0388 0.0
3.9612 23.9612 0.0
-3.9612 16.0388 0.0
-3.9612 23.9612 0.0
2.6251 15.8916 0.0
4.1084 17.3749 0.0
2.6251 24.1084 0.0
-4.1084 17.3749 0.0
4.1084 22.6251 0.0
-2.6251 15.8916 0.0
-2.6251 24.1084 0.0
-4.1084 22.6251 0.0
1.5222 15.7617 0.0
4.2383 18.4778 0.0
-4.2383 18.4778 0.0
1.5222 24.2383 0.0
-1.5222 15.7617 0.0
4.2383 21.5222 0.0
-1.5222 24.2383 0.0
-4.2383 21.5222 0.0
0.6872 15.6542 0.0
4.3458 19.3128 0.0
0.6872 24.3458 0.0
-4.3458 19.3128 0.0
-0.6872 15.6542 0.0
4.3458 20.6872 0.0
-0.6872 24.3458 0.0
-4.3458 20.6872 0.0
2.9021 18.3245 0.0
1.6755 17.0979 0.0
-2.9021 18.3245 0.0
1.6755 22.9021 0.0
-1.6755 17.0979 0.0
2.9021 21.6755 0.0
-2.9021 21.6755 0.0
-1.6755 22.9021 0.0
0.0 23.3165 0.0
-3.3165 20.0 0.0
3.3165 20.0 0.0
0.0 16.6835 0.0
4.3994 16.6072 0.0
3.3928 15.6006 0.0
3.3928 24.3994 0.0
-4.3994 16.6072 0.0
4.3994 23.3928 0.0
-3.3928 15.6006 0.0
-3.3928 24.3994 0.0
-4.3994 23.3928 0.0
2.5808 16.7952 0.0
3.2045 17.4198 0.0
2.5808 23.2048 0.0
-3.2048 17.4192 0.0
3.2045 22.5802 0.0
-2.5802 16.7955 0.0
-3.2048 22.5808 0.0
-2.5802 23.2045 0.0
4.4698 15.5302 0.0
4.4727 24.4727 0.0
-4.4698 15.5302 0.0
-4.4698 24.4698 0.0
15.0 5.0 0.0
15.0 -5.0 0.0
9.6297 -2.8129 0.0
8.9143 -2.6212 0.0
8.2729 -2.2509 0.0
7.7491 -1.7271 0.0
7.3788 -1.0857 0.0
7.1871 -0.3703 0.0
7.1871 0.3703 0.0
7.3788 1.0857 0.0
7.7491 1.7271 0.0
8.2729 2.2509 0.0
8.9143 2.6212 0.0
9.6297 2.8129 0.0
10.3703 2.8129 0.0
11.0857 2.6212 0.0
11.7271 2.2509 0.0
12.2509 1.7271 0.0
12.6212 1.0857 0.0
12.8129 0.3703 0.0
12.8129 -0.3703 0.0
12.6212 -1.0857 0.0
12.2509 -1.7271 0.0
11.7271 -2.2509 0.0
11.0857 -2.6212 0.0
10.3703 -2.8129 0.0
14.0 5.0 0.0
13.0 5.0 0.0
12.0 5.0 0.0
11.0 5.0 0.0
10.0 5.0 0.0
9.0 5.0 0.0
8.0 5.0 0.0
7.0 5.0 0.0
6.0 5.0 0.0
6.0 -5.0 0.0
7.0 -5.0 0.0
8.0 -5.0 0.0
9.0 -5.0 0.0
10.0 -5.0 0.0
11.0 -5.0 0.0
12.0 -5.0 0.0
13.0 -5.0 0.0
14.0 -5.0 0.0
15.0 -4.0 0.0
15.0 -3.0 0.0
15.0 -2.0 0.0
15.0 -1.0 0.0
15.0 0.0 0.0
15.0 1.0 0.0
15.0 2.0 0.0
15.0 3.0 0.0
15.0 4.0 0.0
13.4833 3.4833 0.0
13.4833 -3.4833 0.0
6.5167 -3.4833 0.0
6.5167 3.4833 0.0
13.5391 -1.9577 0.0
11.9577 -3.5391 0.0
6.4609 -1.9577 0.0
11.9577 3.5391 0.0
8.0423 -3.5391 0.0
13.5391 1.9577 0.0
6.4609 1.9577 0.0
8.0423 3.5391 0.0
5.9755 0.0 0.0
10.0 4.0245 0.0
14.0245 0.0 0.0
10.0 -4.0245 0.0
9.0861 3.4661 0.0
6.5339 -0.9139 0.0
13.4661 0.9139 0.0
10.9139 3.4661 0.0
9.0861 -3.4661 0.0
6.5339 0.9139 0.0
13.4661 -0.9139 0.0
10.9139 -3.4661 0.0
12.3936 -2.3936 0.0
7.6064 -2.3936 0.0
12.3936 2.3936 0.0
7.6064 2.3936 0.0
13.9612 -3.9612 0.0
13.9612 3.9612 0.0
6.0388 -3.9612 0.0
6.0388 3.9612 0.0
12.6251 -4.1084 0.0
14.1084 -2.6251 0.0
12.6251 4.1084 0.0
5.8916 -2.6251 0.0
14.1084 2.6251 0.0
7.3749 -4.1084 0.0
7.3749 4.1084 0.0
5.8916 2.6251 0.0
11.5222 -4.2383 0.0
14.2383 -1.5222 0.0
5.7617 -1.5222 0.0
11.5222 4.2383 0.0
8.4778 -4.2383 0.0
14.2383 1.5222 0.0
8.4778 4.2383 0.0
5.7617 1.5222 0.0
10.6872 -4.3458 0.0
14.3458 -0.6872 0.0
10.6872 4.3458 0.0
5.6542 -0.6872 0.0
9.3128 -4.3458 0.0
14.3458 0.6872 0.0
9.3128 4.3458 0.0
5.6542 0.6872 0.0
12.9021 -1.6755 0.0
11.6755 -2.9021 0.0
7.0979 -1.6755 0.0
11.6755 2.9021 0.0
8.3245 -2.9021 0.0
12.9021 1.6755 0.0
7.0979 1.6755 0.0
8.3245 2.9021 0.0
10.0 3.3165 0.0
6.6835 0.0 0.0
13.3165 0.0 0.0
10.0 -3.3165 0.0
14.3994 -3.3928 0.0
13.3928 -4.3994 0.0
13.3928 4.3994 0.0
5.6006 -3.3928 0.0
14.3994 3.3928 0.0
6.6072 -4.3994 0.0
6.6072 4.3994 0.0
[...]
POINT_DATA 1240
SCALARS Temperature_(Fourier) double 1
LOOKUP_TABLE default
-0.472929598281
0.472855876566
0.472855376014
-0.472854348074
0.0628312813263
0.180433717164
0.283528996322
0.362071306339
0.415026379679
0.440192456561
0.440192429928
0.415026314914
0.362071234838
0.283528937055
0.180433666369
0.0628312211083
-0.0628307224396
-0.180433243584
-0.283528968542
-0.362071311726
-0.415026515424
-0.440192567738
-0.440192502101
-0.41502633431
-0.362071065277
-0.28352873752
-0.180433081653
-0.0628306253753
-0.41731838359
-0.333553489777
-0.238530080113
-0.128115233323
1.94311245899e-07
0.128115530936
0.238530128732
0.333553413427
0.417280723844
0.47257722779
0.477818794909
0.479817655033
0.486487097978
0.485967077086
0.486487206777
0.479817862762
0.477819094188
0.472577071295
0.417280625572
0.33355340953
0.238530136768
0.128115541219
2.13801205864e-07
-0.128115202477
-0.238530004108
-0.333553319867
-0.417280046402
-0.472576338705
-0.477818528448
-0.479817466141
-0.486487045359
-0.485967081381
-0.486487177113
-0.47981775565
-0.477819070746
-0.472613459094
-0.386017236154
-0.386016665003
0.386014957866
0.38601490419
-0.424435070918
-0.240472396787
0.424435912423
-0.240472591708
0.240466535086
-0.424435352183
0.42443580358
0.240466498236
0.46541570259
2.10315671008e-07
-0.465415736869
2.57316291885e-07
0.126390447802
0.441743708309
-0.441743829686
-0.126389941819
0.126390491802
0.441743647101
-0.441743694451
-0.126389828519
-0.332402810014
0.332399624094
-0.332403080232
0.33239955636
-0.427798543838
-0.427823889741
0.427799087093
0.427799144816
-0.299492093865
-0.444522971863
-0.299492336277
0.444524752673
-0.444523410039
0.29948773497
0.299487717223
0.444524580679
-0.18791385831
-0.4635524065
0.463552659668
-0.187913953104
0.187914174923
-0.463552620376
0.187914154022
0.463552528156
-0.0868865937413
-0.474585823722
-0.0868866420812
0.474585892342
0.0868870458555
-0.474585914224
0.086887022646
0.474585829201
-0.395229857915
-0.24646446011
0.395229713717
-0.246464670466
0.246460514847
-0.39523010451
0.395229633587
0.246460463994
2.35141369065e-07
0.447917839256
-0.447917911011
3.04328832723e-07
-0.452438251893
-0.371759631337
-0.371760072446
0.452438849366
-0.452439045166
0.371759823451
0.371759839058
0.452438683151
-0.316856712386
-0.383378996171
-0.316857023185
0.383378384105
-0.383379358615
0.31684518904
0.383378294951
0.316845136835
-0.459307958244
-0.459382752193
0.459308820936
0.459309159534
-0.472929598281
0.472855876566
0.0628312813263
0.180433717164
0.283528996322
0.362071306339
0.415026379679
0.440192456561
0.440192429928
0.415026314914
0.362071234838
0.283528937055
0.180433666369
0.0628312211083
-0.0628307224396
-0.180433243584
-0.283528968542
-0.362071311726
-0.415026515424
-0.440192567738
-0.440192502101
-0.41502633431
-0.362071065277
-0.28352873752
-0.180433081653
-0.0628306253753
-0.41731838359
-0.333553489777
-0.238530080113
-0.128115233323
1.94311245899e-07
0.128115530936
0.238530128732
0.333553413427
0.417280723844
0.47257722779
0.477818794909
0.479817655033
0.486487097978
0.485967077086
0.486487206777
0.479817862762
0.477819094188
0.472577071295
-0.472576338705
-0.477818528448
-0.479817466141
-0.486487045359
-0.485967081381
-0.486487177113
-0.47981775565
-0.477819070746
-0.472613459094
-0.386017236154
-0.386016665003
0.386014957866
0.38601490419
-0.424435070918
-0.240472396787
0.424435912423
-0.240472591708
0.240466535086
-0.424435352183
0.42443580358
0.240466498236
0.46541570259
2.10315671008e-07
-0.465415736869
2.57316291885e-07
0.126390447802
0.441743708309
-0.441743829686
-0.126389941819
0.126390491802
0.441743647101
-0.441743694451
-0.126389828519
-0.332402810014
0.332399624094
-0.332403080232
0.33239955636
-0.427798543838
-0.427823889741
0.427799087093
0.427799144816
-0.299492093865
-0.444522971863
-0.299492336277
0.444524752673
-0.444523410039
0.29948773497
0.299487717223
0.444524580679
-0.18791385831
-0.4635524065
0.463552659668
-0.187913953104
0.187914174923
-0.463552620376
0.187914154022
0.463552528156
-0.0868865937413
-0.474585823722
-0.0868866420812
0.474585892342
0.0868870458555
-0.474585914224
0.086887022646
0.474585829201
-0.395229857915
-0.24646446011
0.395229713717
-0.246464670466
0.246460514847
-0.39523010451
0.395229633587
0.246460463994
2.35141369065e-07
0.447917839256
-0.447917911011
3.04328832723e-07
-0.452438251893
-0.371759631337
-0.371760072446
0.452438849366
-0.452439045166
0.371759823451
0.371759839058
0.452438683151
-0.316856712386
-0.383378996171
-0.316857023185
0.383378384105
-0.383379358615
0.31684518904
0.383378294951
0.316845136835
-0.459307958244
-0.459382752193
0.459308820936
0.459309159534
-0.472929598281
0.472855876566
0.0628312813263
0.180433717164
0.283528996322
0.362071306339
0.415026379679
0.440192456561
0.440192429928
0.415026314914
0.362071234838
0.283528937055
0.180433666369
0.0628312211083
-0.0628307224396
-0.180433243584
-0.283528968542
-0.362071311726
-0.415026515424
-0.440192567738
-0.440192502101
-0.41502633431
-0.362071065277
-0.28352873752
-0.180433081653
-0.0628306253753
-0.41731838359
-0.333553489777
-0.238530080113
-0.128115233323
1.94311245899e-07
0.128115530936
0.238530128732
0.333553413427
0.417280723844
0.47257722779
0.477818794909
0.479817655033
0.486487097978
0.485967077086
0.486487206777
0.479817862762
0.477819094188
0.472577071295
-0.472576338705
-0.477818528448
-0.479817466141
-0.486487045359
-0.485967081381
-0.486487177113
-0.47981775565
-0.477819070746
-0.472613459094
-0.386017236154
-0.386016665003
0.386014957866
0.38601490419
-0.424435070918
-0.240472396787
0.424435912423
-0.240472591708
0.240466535086
-0.424435352183
0.42443580358
0.240466498236
0.46541570259
2.10315671008e-07
-0.465415736869
2.57316291885e-07
0.126390447802
0.441743708309
-0.441743829686
-0.126389941819
0.126390491802
0.441743647101
-0.441743694451
-0.126389828519
-0.332402810014
0.332399624094
-0.332403080232
0.33239955636
-0.427798543838
-0.427823889741
0.427799087093
0.427799144816
-0.299492093865
-0.444522971863
-0.299492336277
0.444524752673
-0.444523410039
0.29948773497
0.299487717223
0.444524580679
-0.18791385831
-0.4635524065
0.463552659668
-0.187913953104
0.187914174923
-0.463552620376
0.187914154022
0.463552528156
-0.0868865937413
-0.474585823722
-0.0868866420812
0.474585892342
0.0868870458555
-0.474585914224
0.086887022646
0.474585829201
-0.395229857915
-0.24646446011
0.395229713717
-0.246464670466
0.246460514847
-0.39523010451
0.395229633587
0.246460463994
2.35141369065e-07
0.447917839256
-0.447917911011
3.04328832723e-07
-0.452438251893
-0.371759631337
-0.371760072446
0.452438849366
-0.452439045166
0.371759823451
0.371759839058
0.452438683151
-0.316856712386
-0.383378996171
-0.316857023185
0.383378384105
-0.383379358615
0.31684518904
0.383378294951
0.316845136835
-0.459307958244
-0.459382752193
0.459308820936
0.459309159534
-1.47292959828
-1.47285434807
-0.937168718674
-0.819566282836
-0.716471003678
-0.637928693661
-0.584973620321
-0.559807543439
-0.559807570072
-0.584973685086
-0.637928765162
-0.716471062945
-0.819566333631
-0.937168778892
-1.06283072244
-1.18043324358
-1.28352896854
-1.36207131173
-1.41502651542
-1.44019256774
-1.4401925021
-1.41502633431
-1.36207106528
-1.28352873752
-1.18043308165
-1.06283062538
-1.41731838359
-1.33355348978
-1.23853008011
-1.12811523332
-0.999999805689
-0.871884469064
-0.761469871268
-0.666446586573
-0.582719276156
-0.582719374428
-0.66644659047
-0.761469863232
-0.871884458781
-0.999999786199
-1.12811520248
-1.23853000411
-1.33355331987
-1.4172800464
-1.47257633871
-1.47781852845
-1.47981746614
-1.48648704536
-1.48596708138
-1.48648717711
-1.47981775565
-1.47781907075
-1.47261345909
-1.38601723615
-1.386016665
-0.613985042134
-0.61398509581
-1.42443507092
-1.24047239679
-0.575564087577
-1.24047259171
-0.759533464914
-1.42443535218
-0.57556419642
-0.759533501764
-0.53458429741
-0.999999789684
-1.46541573687
-0.999999742684
-0.873609552198
-0.558256291691
-1.44174382969
-1.12638994182
-0.873609508198
-0.558256352899
-1.44174369445
-1.12638982852
-1.33240281001
-0.667600375906
-1.33240308023
-0.66760044364
-1.42779854384
-1.42782388974
-0.572200912907
-0.572200855184
-1.29949209387
-1.44452297186
-1.29949233628
-0.555475247327
-1.44452341004
-0.70051226503
-0.700512282777
-0.555475419321
-1.18791385831
-1.4635524065
-0.536447340332
-1.1879139531
-0.812085825077
-1.46355262038
-0.812085845978
-0.536447471844
-1.08688659374
-1.47458582372
-1.08688664208
-0.525414107658
-0.913112954144
-1.47458591422
-0.913112977354
-0.525414170799
-1.39522985792
-1.24646446011
-0.604770286283
-1.24646467047
-0.753539485153
-1.39523010451
-0.604770366413
-0.753539536006
-0.999999764859
-0.552082160744
-1.44791791101
-0.999999695671
-1.45243825189
-1.37175963134
-1.37176007245
-0.547561150634
-1.45243904517
-0.628240176549
-0.628240160942
-0.547561316849
-1.31685671239
-1.38337899617
-1.31685702318
-0.616621615895
-1.38337935861
-0.68315481096
-0.616621705049
-0.683154863165
-1.45930795824
-1.45938275219
-0.540691179064
-0.540690840466
-1.47292959828
-0.937168718674
-0.819566282836
-0.716471003678
-0.637928693661
-0.584973620321
-0.559807543439
-0.559807570072
-0.584973685086
-0.637928765162
-0.716471062945
-0.819566333631
-0.937168778892
-1.06283072244
-1.18043324358
-1.28352896854
-1.36207131173
-1.41502651542
-1.44019256774
-1.4401925021
-1.41502633431
-1.36207106528
-1.28352873752
-1.18043308165
-1.06283062538
-1.41731838359
-1.33355348978
-1.23853008011
-1.12811523332
-0.999999805689
-0.871884469064
-0.761469871268
-0.666446586573
-0.582719276156
-1.47257633871
-1.47781852845
-1.47981746614
-1.48648704536
-1.48596708138
-1.48648717711
-1.47981775565
-1.47781907075
-1.47261345909
-1.38601723615
-1.386016665
-0.613985042134
-0.61398509581
-1.42443507092
-1.24047239679
-0.575564087577
-1.24047259171
-0.759533464914
-1.42443535218
-0.57556419642
-0.759533501764
-0.53458429741
-0.999999789684
-1.46541573687
-0.999999742684
-0.873609552198
-0.558256291691
-1.44174382969
-1.12638994182
-0.873609508198
-0.558256352899
-1.44174369445
-1.12638982852
-1.33240281001
-0.667600375906
-1.33240308023
-0.66760044364
-1.42779854384
-1.42782388974
-0.572200912907
-0.572200855184
-1.29949209387
-1.44452297186
-1.29949233628
-0.555475247327
-1.44452341004
-0.70051226503
-0.700512282777
-0.555475419321
-1.18791385831
-1.4635524065
-0.536447340332
-1.1879139531
-0.812085825077
-1.46355262038
-0.812085845978
-0.536447471844
-1.08688659374
-1.47458582372
-1.08688664208
-0.525414107658
-0.913112954144
-1.47458591422
-0.913112977354
-0.525414170799
-1.39522985792
-1.24646446011
-0.604770286283
-1.24646467047
-0.753539485153
-1.39523010451
-0.604770366413
-0.753539536006
-0.999999764859
-0.552082160744
-1.44791791101
-0.999999695671
-1.45243825189
-1.37175963134
-1.37176007245
-0.547561150634
-1.45243904517
-0.628240176549
-0.628240160942
-0.547561316849
-1.31685671239
-1.38337899617
-1.31685702318
-0.616621615895
-1.38337935861
-0.68315481096
-0.616621705049
-0.683154863165
-1.45930795824
-1.45938275219
-0.540691179064
-0.540690840466
-1.47292959828
-0.937168718674
-0.819566282836
-0.716471003678
-0.637928693661
-0.584973620321
-0.559807543439
-0.559807570072
-0.584973685086
-0.637928765162
-0.716471062945
-0.819566333631
-0.937168778892
-1.06283072244
-1.18043324358
-1.28352896854
-1.36207131173
-1.41502651542
-1.44019256774
-1.4401925021
-1.41502633431
-1.36207106528
-1.28352873752
-1.18043308165
-1.06283062538
-1.41731838359
-1.33355348978
-1.23853008011
-1.12811523332
-0.999999805689
-0.871884469064
-0.761469871268
-0.666446586573
-0.582719276156
-1.47257633871
-1.47781852845
-1.47981746614
-1.48648704536
-1.48596708138
-1.48648717711
-1.47981775565
-1.47781907075
-1.47261345909
-1.38601723615
-1.386016665
-0.613985042134
-0.61398509581
-1.42443507092
-1.24047239679
-0.575564087577
-1.24047259171
-0.759533464914
-1.42443535218
-0.57556419642
-0.759533501764
-0.53458429741
-0.999999789684
-1.46541573687
-0.999999742684
-0.873609552198
-0.558256291691
-1.44174382969
-1.12638994182
-0.873609508198
-0.558256352899
-1.44174369445
-1.12638982852
-1.33240281001
-0.667600375906
-1.33240308023
-0.66760044364
-1.42779854384
-1.42782388974
-0.572200912907
-0.572200855184
-1.29949209387
-1.44452297186
-1.29949233628
-0.555475247327
-1.44452341004
-0.70051226503
-0.700512282777
-0.555475419321
-1.18791385831
-1.4635524065
-0.536447340332
-1.1879139531
-0.812085825077
-1.46355262038
-0.812085845978
-0.536447471844
-1.08688659374
-1.47458582372
-1.08688664208
-0.525414107658
-0.913112954144
-1.47458591422
-0.913112977354
-0.525414170799
-1.39522985792
-1.24646446011
-0.604770286283
-1.24646467047
-0.753539485153
-1.39523010451
-0.604770366413
-0.753539536006
-0.999999764859
-0.552082160744
-1.44791791101
-0.999999695671
-1.45243825189
-1.37175963134
-1.37176007245
-0.547561150634
-1.45243904517
-0.628240176549
-0.628240160942
-0.547561316849
-1.31685671239
-1.38337899617
-1.31685702318
-0.616621615895
-1.38337935861
-0.68315481096
-0.616621705049
-0.683154863165
-1.45930795824
-1.45938275219
-0.540691179064
-0.540690840466
-2.47292959828
-2.47285434807
-1.93716871867
-1.81956628284
-1.71647100368
-1.63792869366
-1.58497362032
-1.55980754344
-1.55980757007
-1.58497368509
-1.63792876516
-1.71647106295
-1.81956633363
-1.93716877889
-2.06283072244
-2.18043324358
-2.28352896854
-2.36207131173
-2.41502651542
-2.44019256774
-2.4401925021
-2.41502633431
-2.36207106528
-2.28352873752
-2.18043308165
-2.06283062538
-2.41731838359
-2.33355348978
-2.23853008011
-2.12811523332
-1.99999980569
-1.87188446906
-1.76146987127
-1.66644658657
-1.58271927616
-1.58271937443
-1.66644659047
-1.76146986323
-1.87188445878
-1.9999997862
-2.12811520248
-2.23853000411
-2.33355331987
-2.4172800464
-2.47257633871
-2.47781852845
-2.47981746614
-2.48648704536
-2.48596708138
-2.48648717711
-2.47981775565
-2.47781907075
-2.47261345909
-2.38601723615
-2.386016665
-1.61398504213
-1.61398509581
-2.42443507092
-2.24047239679
-1.57556408758
-2.24047259171
-1.75953346491
-2.42443535218
-1.57556419642
-1.75953350176
-1.53458429741
-1.99999978968
-2.46541573687
-1.99999974268
-1.8736095522
-1.55825629169
-2.44174382969
-2.12638994182
-1.8736095082
-1.5582563529
-2.44174369445
-2.12638982852
-2.33240281001
-1.66760037591
-2.33240308023
-1.66760044364
-2.42779854384
-2.42782388974
-1.57220091291
-1.57220085518
-2.29949209387
-2.44452297186
-2.29949233628
-1.55547524733
-2.44452341004
-1.70051226503
-1.70051228278
-1.55547541932
-2.18791385831
-2.4635524065
-1.53644734033
-2.1879139531
-1.81208582508
-2.46355262038
-1.81208584598
-1.53644747184
-2.08688659374
-2.47458582372
-2.08688664208
-1.52541410766
-1.91311295414
-2.47458591422
-1.91311297735
-1.5254141708
-2.39522985792
-2.24646446011
-1.60477028628
-2.24646467047
-1.75353948515
-2.39523010451
-1.60477036641
-1.75353953601
-1.99999976486
-1.55208216074
-2.44791791101
-1.99999969567
-2.45243825189
-2.37175963134
-2.37176007245
-1.54756115063
-2.45243904517
-1.62824017655
-1.62824016094
-1.54756131685
-2.31685671239
-2.38337899617
-2.31685702318
-1.6166216159
-2.38337935861
-1.68315481096
-1.61662170505
-1.68315486316
-2.45930795824
-2.45938275219
-1.54069117906
-1.54069084047
-2.47292959828
-1.93716871867
-1.81956628284
-1.71647100368
-1.63792869366
-1.58497362032
-1.55980754344
-1.55980757007
-1.58497368509
-1.63792876516
-1.71647106295
-1.81956633363
-1.93716877889
-2.06283072244
-2.18043324358
-2.28352896854
-2.36207131173
-2.41502651542
-2.44019256774
-2.4401925021
-2.41502633431
-2.36207106528
-2.28352873752
-2.18043308165
-2.06283062538
-2.41731838359
-2.33355348978
-2.23853008011
-2.12811523332
-1.99999980569
-1.87188446906
-1.76146987127
-1.66644658657
-1.58271927616
-2.47257633871
-2.47781852845
-2.47981746614
-2.48648704536
-2.48596708138
-2.48648717711
-2.47981775565
-2.47781907075
-2.47261345909
-2.38601723615
-2.386016665
-1.61398504213
-1.61398509581
-2.42443507092
-2.24047239679
-1.57556408758
-2.24047259171
-1.75953346491
-2.42443535218
-1.57556419642
-1.75953350176
-1.53458429741
-1.99999978968
-2.46541573687
-1.99999974268
-1.8736095522
-1.55825629169
-2.44174382969
-2.12638994182
-1.8736095082
-1.5582563529
-2.44174369445
-2.12638982852
-2.33240281001
-1.66760037591
-2.33240308023
-1.66760044364
-2.42779854384
-2.42782388974
-1.57220091291
-1.57220085518
-2.29949209387
-2.44452297186
-2.29949233628
-1.55547524733
-2.44452341004
-1.70051226503
-1.70051228278
-1.55547541932
-2.18791385831
-2.4635524065
-1.53644734033
-2.1879139531
-1.81208582508
-2.46355262038
-1.81208584598
-1.53644747184
-2.08688659374
-2.47458582372
-2.08688664208
-1.52541410766
-1.91311295414
-2.47458591422
-1.91311297735
-1.5254141708
-2.39522985792
-2.24646446011
-1.60477028628
-2.24646467047
-1.75353948515
-2.39523010451
-1.60477036641
-1.75353953601
-1.99999976486
-1.55208216074
-2.44791791101
-1.99999969567
-2.45243825189
-2.37175963134
-2.37176007245
-1.54756115063
-2.45243904517
-1.62824017655
-1.62824016094
-1.54756131685
-2.31685671239
-2.38337899617
-2.31685702318
-1.6166216159
-2.38337935861
-1.68315481096
-1.61662170505
-1.68315486316
-2.45930795824
-2.45938275219
-1.54069117906
-1.54069084047
-2.47292959828
-1.93716871867
-1.81956628284
-1.71647100368
-1.63792869366
-1.58497362032
-1.55980754344
-1.55980757007
-1.58497368509
-1.63792876516
-1.71647106295
-1.81956633363
-1.93716877889
-2.06283072244
-2.18043324358
-2.28352896854
-2.36207131173
-2.41502651542
-2.44019256774
-2.4401925021
-2.41502633431
-2.36207106528
-2.28352873752
-2.18043308165
-2.06283062538
-2.41731838359
-2.33355348978
-2.23853008011
-2.12811523332
-1.99999980569
-1.87188446906
-1.76146987127
-1.66644658657
-1.58271927616
-2.47257633871
-2.47781852845
-2.47981746614
-2.48648704536
-2.48596708138
-2.48648717711
-2.47981775565
-2.47781907075
-2.47261345909
-2.38601723615
-2.386016665
-1.61398504213
-1.61398509581
-2.42443507092
-2.24047239679
-1.57556408758
-2.24047259171
-1.75953346491
-2.42443535218
-1.57556419642
-1.75953350176
-1.53458429741
-1.99999978968
-2.46541573687
-1.99999974268
-1.8736095522
-1.55825629169
-2.44174382969
-2.12638994182
-1.8736095082
-1.5582563529
-2.44174369445
-2.12638982852
-2.33240281001
-1.66760037591
-2.33240308023
-1.66760044364
-2.42779854384
-2.42782388974
-1.57220091291
-1.57220085518
-2.29949209387
-2.44452297186
-2.29949233628
-1.55547524733
-2.44452341004
-1.70051226503
-1.70051228278
-1.55547541932
-2.18791385831
-2.4635524065
-1.53644734033
-2.1879139531
-1.81208582508
-2.46355262038
-1.81208584598
-1.53644747184
-2.08688659374
-2.47458582372
-2.08688664208
-1.52541410766
-1.91311295414
-2.47458591422
-1.91311297735
-1.5254141708
-2.39522985792
-2.24646446011
-1.60477028628
-2.24646467047
-1.75353948515
-2.39523010451
-1.60477036641
-1.75353953601
-1.99999976486
-1.55208216074
-2.44791791101
-1.99999969567
-2.45243825189
-2.37175963134
-2.37176007245
-1.54756115063
-2.45243904517
-1.62824017655
-1.62824016094
-1.54756131685
-2.31685671239
-2.38337899617
-2.31685702318
-1.6166216159
-2.38337935861
-1.68315481096
-1.61662170505
-1.68315486316
-2.45930795824
-2.45938275219
-1.54069117906
-1.54069084047
SCALARS Temperature_(BTE) double 1
LOOKUP_TABLE default
-0.486596927253
0.486525026209
0.486540727423
-0.486537595558
0.0995870167156
0.283536212637
0.426878076418
0.512799302887
0.571130860992
0.596574165619
0.596577038511
0.571129093399
0.512784290994
0.426867231836
0.283533861732
0.0995886237777
-0.0995873264745
-0.283541289156
-0.426887447728
-0.512793235867
-0.571120160489
-0.596566859627
-0.596567029503
-0.571119987483
-0.51279216767
-0.426886558617
-0.283542924557
-0.0995900749587
-0.443583422876
-0.37750992473
-0.287428910077
-0.16671262814
4.74598049541e-07
0.166711287786
0.287426409878
0.377511700163
0.443561531732
0.487174058832
0.491413060328
0.499770216963
0.502479776977
0.511310626417
0.502477796473
0.499762335748
0.491394077872
0.487192943606
0.4435607426
0.377511554236
0.287426500824
0.166711243683
-5.26867788841e-08
-0.166713209347
-0.287429977051
-0.377511322411
-0.443557381496
-0.487192442149
-0.491394447662
-0.499753091036